----- GAMESS execution script 'rungms' -----
This job is running on host chemcompute-node-0.novalocal
under operating system Linux at Tue Dec 21 21:44:06 UTC 2021
SLURM has assigned the following compute nodes to this run:
chemcompute-node-0
Available scratch disk space (Kbyte units) at beginning of the job is
Filesystem     1K-blocks     Used Available Use% Mounted on
/dev/sda1       62903276 16726620  46176656  27% /
GAMESS temporary binary files will be written to /scratch/330194
GAMESS supplementary output files will be written to /data/slurm/368176
Copying input file 368176.inp to your run's scratch directory...
The generated host list is
chemcompute-node-0.novalocal

 Distributed Data Interface kickoff program.
 Initiating 1 compute processes on 1 nodes to run the following command:
 /data/gamess-2019R1-ddi/gamess.00.x 368176 

          ******************************************************
          *         GAMESS VERSION = 30 JUN 2019 (R1)          *
          *             FROM IOWA STATE UNIVERSITY             *
          * M.W.SCHMIDT, K.K.BALDRIDGE, J.A.BOATZ, S.T.ELBERT, *
          *   M.S.GORDON, J.H.JENSEN, S.KOSEKI, N.MATSUNAGA,   *
          *          K.A.NGUYEN, S.J.SU, T.L.WINDUS,           *
          *       TOGETHER WITH M.DUPUIS, J.A.MONTGOMERY       *
          *         J.COMPUT.CHEM.  14, 1347-1363(1993)        *
          **************** 64 BIT LINUX VERSION ****************

  SINCE 1993, STUDENTS AND POSTDOCS WORKING AT IOWA STATE UNIVERSITY
  AND ALSO IN THEIR VARIOUS JOBS AFTER LEAVING ISU HAVE MADE IMPORTANT
  CONTRIBUTIONS TO THE CODE:
     IVANA ADAMOVIC, CHRISTINE AIKENS, YURI ALEXEEV, POOJA ARORA,
     ANDREY ASADCHEV, ROB BELL, PRADIPTA BANDYOPADHYAY, JONATHAN BENTZ,
     COLLEEN BERTONI, BRETT BODE, KURT BRORSEN, CALEB CARLIN, GALINA CHABAN,
     WEI CHEN, CHEOL HO CHOI, PAUL DAY, ALBERT DEFUSCO, NUWAN DESILVA,
     TIM DUDLEY, DMITRI FEDOROV, ALEX FINDLATER, GRAHAM FLETCHER, 
     MARK FREITAG, KURT GLAESEMANN, ANASTASIA GUNINA,
     DAN KEMP, GRANT MERRILL, NORIYUKI MINEZAWA, JONATHAN MULLIN,
     TAKESHI NAGATA, SEAN NEDD, HEATHER NETZLOFF, BOSILJKA NJEGIC, RYAN OLSON,
     MIKE PAK, BUU PHAM,
     SPENCER PRUITT, LUKE ROSKOP, JIM SHOEMAKER, LYUDMILA SLIPCHENKO,
     TONY SMITH, SAROM SOK LEANG, JIE SONG, TETSUYA TAKETSUGU, SIMON WEBB,
     PENG XU, SOOHAENG YOO, FEDERICO ZAHARIEV

  ADDITIONAL CODE HAS BEEN PROVIDED BY COLLABORATORS IN OTHER GROUPS:
     IOWA STATE UNIVERSITY:
          JOE IVANIC, AARON WEST, LAIMUTIS BYTAUTAS, KLAUS RUEDENBERG
     UNIVERSITY OF TOKYO: KIMIHIKO HIRAO, TAKAHITO NAKAJIMA,
          TAKAO TSUNEDA, MUNEAKI KAMIYA, SUSUMU YANAGISAWA,
          KIYOSHI YAGI, MAHITO CHIBA, SEIKEN TOKURA, NAOAKI KAWAKAMI
     UNIVERSITY OF AARHUS: FRANK JENSEN
     UNIVERSITY OF IOWA: VISVALDAS KAIRYS, HUI LI
     NATIONAL INST. OF STANDARDS AND TECHNOLOGY: WALT STEVENS, DAVID GARMER
     UNIVERSITY OF PISA: BENEDETTA MENNUCCI, JACOPO TOMASI
     UNIVERSITY OF MEMPHIS: HENRY KURTZ, PRAKASHAN KORAMBATH
     UNIVERSITY OF ALBERTA: TOBY ZENG, MARIUSZ KLOBUKOWSKI
     UNIVERSITY OF NEW ENGLAND: MARK SPACKMAN
     MIE UNIVERSITY: HIROAKI UMEDA
     NAT. INST. OF ADVANCED INDUSTRIAL SCIENCE AND TECHNOLOGY: KAZUO KITAURA
     MICHIGAN STATE UNIVERSITY:
          KAROL KOWALSKI, MARTA WLOCH, JEFFREY GOUR, JESSE LUTZ,
          WEI LI, JUN SHEN, J. EMILIANO DEUSTUA, PIOTR PIECUCH
     UNIVERSITY OF MINNESOTA:
          YINAN SHU
     UNIVERSITY OF SILESIA: MONIKA MUSIAL, STANISLAW KUCHARSKI
     FACULTES UNIVERSITAIRES NOTRE-DAME DE LA PAIX:
          OLIVIER QUINET, BENOIT CHAMPAGNE
     UNIVERSITY OF CALIFORNIA - SANTA BARBARA: BERNARD KIRTMAN
     INSTITUTE FOR MOLECULAR SCIENCE:
          KAZUYA ISHIMURA, MICHIO KATOUDA, AND SHIGERU NAGASE
     UNIVERSITY OF NOTRE DAME: ANNA POMOGAEVA, DAN CHIPMAN
     KYUSHU UNIVERSITY:
          HARUYUKI NAKANO,
          FENG LONG GU, JACEK KORCHOWIEC, MARCIN MAKOWSKI, AND YURIKO AOKI,
          HIROTOSHI MORI AND EISAKU MIYOSHI
     PENNSYLVANIA STATE UNIVERSITY:
          TZVETELIN IORDANOV, CHET SWALINA, JONATHAN SKONE,
          SHARON HAMMES-SCHIFFER
     WASEDA UNIVERSITY:
          MASATO KOBAYASHI, TOMOKO AKAMA, TSUGUKI TOUMA,
          TAKESHI YOSHIKAWA, YASUHIRO IKABATA, JUNJI SEINO,
          YUYA NAKAJIMA, HIROMI NAKAI
     NANJING UNIVERSITY: SHUHUA LI
     UNIVERSITY OF NEBRASKA:
          PEIFENG SU, DEJUN SI, NANDUN THELLAMUREGE, YALI WANG, HUI LI
     UNIVERSITY OF ZURICH: ROBERTO PEVERATI, KIM BALDRIDGE
     N. COPERNICUS UNIVERSITY AND JACKSON STATE UNIVERSITY:
          MARIA BARYSZ
     UNIVERSITY OF COPENHAGEN: Jimmy Kromann, CASPER STEINMANN
     TOKYO INSTITUTE OF TECHNOLOGY: HIROYA NAKATA
     NAGOYA UNIVERSITY: YOSHIO NISHIMOTO, STEPHAN IRLE
     MOSCOW STATE UNIVERSITY: VLADIMIR MIRONOV
     A.N.NESMEYANOV INSTITUTE OF ORGANOELEMENT COMPOUNDS OF RUSSIAN ACADEMY OF SCIENCES:
          IGOR S. GERASIMOV

 EXECUTION OF GAMESS BEGUN Tue Dec 21 21:44:07 2021

            ECHO OF THE FIRST FEW INPUT CARDS -
 INPUT CARD>!File created by the GAMESS Input Deck Generator Plugin for Avogadro            
 INPUT CARD> $BASIS GBASIS=STO NGAUSS=3 $END                                                
 INPUT CARD> $CONTRL SCFTYP=UHF RUNTYP=OPTIMIZE NZVAR=1 mult=2  ICHARG=1 $END               
 INPUT CARD> $STATPT hssend=.t. OPTTOL=0.0005 NSTEP=50 $END                                 
 INPUT CARD> $STATPT HESS=calc ihrep=5 $END                                                 
 INPUT CARD> $FORCE nvib=2 $END                                                             
 INPUT CARD> $ZMAT DLC=.t. auto=.t. nonvdw(1)=1,7,1,2,2,3 $END                              
 INPUT CARD> $ZMAT IFZMAT(1)=1,2,3 fvalue(1)=1.50,1.50 $END                                 
 INPUT CARD>                                                                                
 INPUT CARD> $DATA                                                                          
 INPUT CARD>Title                                                                           
 INPUT CARD>C1                                                                              
 INPUT CARD>N     7.0    -7.19272995     2.71170998    -0.13966000                          
 INPUT CARD>C     6.0    -5.89875984     2.84342003    -0.18109000                          
 INPUT CARD>Cl    17.0    -5.16880989     3.72221994     0.80006999                         
 INPUT CARD>H     1.0    -5.32390022     2.31490993    -0.93540001                          
 INPUT CARD>H     1.0    -7.72949982     3.11190009     0.66741002                          
 INPUT CARD>H     1.0    -7.63365984     1.98687994    -0.75331998                          
 INPUT CARD>H     1.0    -7.70612001     3.87757993    -1.09570003                          
 INPUT CARD> $END                                                                           
    1000000 WORDS OF MEMORY AVAILABLE

     BASIS OPTIONS
     -------------
     GBASIS=STO          IGAUSS=       3      POLAR=NONE    
     NDFUNC=       0     NFFUNC=       0     DIFFSP=       F
     NPFUNC=       0      DIFFS=       F     BASNAM=        


     RUN TITLE
     ---------
 Title                                                                           

 THE POINT GROUP OF THE MOLECULE IS C1      
 THE ORDER OF THE PRINCIPAL AXIS IS     0

 ATOM      ATOMIC                      COORDINATES (BOHR)
           CHARGE         X                   Y                   Z
 N           7.0   -13.5922887092        5.1243888204       -0.2639191314
 C           6.0   -11.1470397650        5.3732847247       -0.3422104791
 CL         17.0    -9.7676343747        7.0339757526        1.5119130521
 H           1.0   -10.0607126018        4.3745454540       -1.7676497078
 H           1.0   -14.6066366819        5.8806384713        1.2612220593
 H           1.0   -14.4255253811        3.7546586571       -1.4235683433
 H           1.0   -14.5624552474        7.3275635632       -2.0705728214

          INTERNUCLEAR DISTANCES (ANGS.)
          ------------------------------

                1 N          2 C          3 CL         4 H          5 H     

   1 N       0.0000000    1.3013157 *  2.4495867 *  2.0695838 *  1.0486353 *
   2 C       1.3013157 *  0.0000000    1.5059187 *  1.0857118 *  2.0355939 *
   3 CL      2.4495867 *  1.5059187 *  0.0000000    2.2397390 *  2.6357583 *
   4 H       2.0695838 *  1.0857118 *  2.2397390 *  0.0000000    2.9985168 *
   5 H       1.0486353 *  2.0355939 *  2.6357583 *  2.9985168 *  0.0000000  
   6 H       1.0470799 *  2.0176685 *  3.3911518    2.3400313 *  1.8147533 *
   7 H       1.5927444 *  2.2743239 *  3.1711234    2.8535250 *  1.9223343 *

                6 H          7 H     

   1 N       1.0470799 *  1.5927444 *
   2 C       2.0176685 *  2.2743239 *
   3 CL      3.3911518    3.1711234  
   4 H       2.3400313 *  2.8535250 *
   5 H       1.8147533 *  1.9223343 *
   6 H       0.0000000    1.9228159 *
   7 H       1.9228159 *  0.0000000  

  * ... LESS THAN  3.000


     ATOMIC BASIS SET
     ----------------
 THE CONTRACTED PRIMITIVE FUNCTIONS HAVE BEEN UNNORMALIZED
 THE CONTRACTED BASIS FUNCTIONS ARE NOW NORMALIZED TO UNITY

  SHELL TYPE  PRIMITIVE        EXPONENT          CONTRACTION COEFFICIENT(S)

 N         

      1   S       1            99.1061690    0.154328967295
      1   S       2            18.0523124    0.535328142282
      1   S       3             4.8856602    0.444634542185

      2   L       4             3.7804559   -0.099967229187    0.155916274999
      2   L       5             0.8784966    0.399512826089    0.607683718598
      2   L       6             0.2857144    0.700115468880    0.391957393099

 C         

      3   S       7            71.6168373    0.154328967295
      3   S       8            13.0450963    0.535328142282
      3   S       9             3.5305122    0.444634542185

      4   L      10             2.9412494   -0.099967229187    0.155916274999
      4   L      11             0.6834831    0.399512826089    0.607683718598
      4   L      12             0.2222899    0.700115468880    0.391957393099

 CL        

      5   S      13           601.3456136    0.154328967295
      5   S      14           109.5358542    0.535328142282
      5   S      15            29.6446769    0.444634542185

      6   L      16            38.9604189   -0.099967229187    0.155916274999
      6   L      17             9.0535635    0.399512826089    0.607683718598
      6   L      18             2.9444998    0.700115468880    0.391957393099

      7   L      19             2.2112785   -0.219620369005    0.010587604289
      7   L      20             0.6169411    0.225595433605    0.595167005266
      7   L      21             0.2414666    0.900398426019    0.462001011973

 H         

      8   S      22             3.4252509    0.154328967295
      8   S      23             0.6239137    0.535328142282
      8   S      24             0.1688554    0.444634542185

 H         

      9   S      25             3.4252509    0.154328967295
      9   S      26             0.6239137    0.535328142282
      9   S      27             0.1688554    0.444634542185

 H         

     10   S      28             3.4252509    0.154328967295
     10   S      29             0.6239137    0.535328142282
     10   S      30             0.1688554    0.444634542185

 H         

     11   S      31             3.4252509    0.154328967295
     11   S      32             0.6239137    0.535328142282
     11   S      33             0.1688554    0.444634542185

 TOTAL NUMBER OF BASIS SET SHELLS             =   11
 NUMBER OF CARTESIAN GAUSSIAN BASIS FUNCTIONS =   23
 NUMBER OF ELECTRONS                          =   33
 CHARGE OF MOLECULE                           =    1
 SPIN MULTIPLICITY                            =    2
 NUMBER OF OCCUPIED ORBITALS (ALPHA)          =   17
 NUMBER OF OCCUPIED ORBITALS (BETA )          =   16
 TOTAL NUMBER OF ATOMS                        =    7
 THE NUCLEAR REPULSION ENERGY IS      111.6180009523

     $CONTRL OPTIONS
     ---------------
 SCFTYP=UHF          RUNTYP=OPTIMIZE     EXETYP=RUN     
 MPLEVL=       0     CITYP =NONE         CCTYP =NONE         VBTYP =NONE    
 DFTTYP=NONE         TDDFT =NONE    
 MULT  =       2     ICHARG=       1     NZVAR =       1     COORD =UNIQUE  
 PP    =NONE         RELWFN=NONE         LOCAL =NONE         NUMGRD=       F
 ISPHER=      -1     NOSYM =       0     MAXIT =      30     UNITS =ANGS    
 PLTORB=       F     MOLPLT=       F     AIMPAC=       F     FRIEND=        
 NPRINT=       7     IREST =       0     GEOM  =INPUT   
 NORMF =       0     NORMP =       0     ITOL  =      20     ICUT  =       9
 INTTYP=BEST         GRDTYP=BEST         QMTTOL= 1.0E-06

     $SYSTEM OPTIONS
     ---------------
  REPLICATED MEMORY=     1000000 WORDS (ON EVERY NODE).
 DISTRIBUTED MEMDDI=           0 MILLION WORDS IN AGGREGATE,
 MEMDDI DISTRIBUTED OVER   1 PROCESSORS IS           0 WORDS/PROCESSOR.
 TOTAL MEMORY REQUESTED ON EACH PROCESSOR=     1000000 WORDS.
 TIMLIM=      525600.00 MINUTES, OR     365.0 DAYS.
 PARALL= F  BALTYP=  DLB     KDIAG=    0  COREFL= F
 MXSEQ2=     300 MXSEQ3=     150  mem10=         0

          ----------------
          PROPERTIES INPUT
          ----------------

     MOMENTS            FIELD           POTENTIAL          DENSITY
 IEMOM =       1   IEFLD =       0   IEPOT =       0   IEDEN =       0
 WHERE =COMASS     WHERE =NUCLEI     WHERE =NUCLEI     WHERE =NUCLEI  
 OUTPUT=BOTH       OUTPUT=BOTH       OUTPUT=BOTH       OUTPUT=BOTH    
 IEMINT=       0   IEFINT=       0                     IEDINT=       0
                                                       MORB  =       0
          EXTRAPOLATION IN EFFECT
          SOSCF IN EFFECT
          DIIS or SOSCF will be reset if energy rises
 ORBITAL PRINTING OPTION: NPREO=     1    23     2     1

     -------------------------------
     INTEGRAL TRANSFORMATION OPTIONS
     -------------------------------
     NWORD  =            0
     CUTOFF = 1.0E-09     MPTRAN =       0
     DIRTRF =       F     AOINTS =DUP     

          ----------------------
          INTEGRAL INPUT OPTIONS
          ----------------------
 NOPK  =       1 NORDER=       0 SCHWRZ=       T


 -----------------------------------------------
  STATISTICS ON AUTOMATIC COORDINATE GENERATION 
 -----------------------------------------------
  NUMBER OF USER SPECIFIED BONDS                             3
  NUMBER OF BONDS                                            8
  NUMBER OF ANGLES                                          17
  NUMBER OF TORSIONS                                         6
  NUMBER OF EXTRA COORD.                                     0
  NUMBER OF EXTRA COORD. FOR CONSTRAINTS                     0
  NUMBER OF CONSTRAINED COORD.                               1

  TOTAL NUMBER OF PRIMITIVES                                31
 -----------------------------------------------

   --- ENCODED Z MATRIX ---
 COORD  TYPE   I   J   K   L   M   N
    1      1    2   3
    2      1    1   5
    3      1    1   2
    4      1    1   2
    5      1    1   6
    6      1    1   7
    7      1    2   4
    8      1    2   3
    9      2    1   2   3
   10      2    1   2   4
   11      2    1   2   3
   12      2    1   2   4
   13      2    1   2   3
   14      2    1   2   3
   15      2    2   1   5
   16      2    2   1   7
   17      2    2   1   7
   18      2    2   1   6
   19      2    2   1   6
   20      2    2   1   5
   21      2    3   2   4
   22      2    3   2   4
   23      2    5   1   6
   24      2    5   1   7
   25      2    6   1   7
   26      3    3   2   1   7
   27      3    3   2   1   5
   28      3    3   2   1   6
   29      3    4   2   1   7
   30      3    4   2   1   6
   31      3    4   2   1   5

          INDEP./SYM. INTERNAL COORDINATES
          --------------------------------
 CRD  1=   1.0000 (  1)
 CRD  2=   0.1723 (  2) -0.1300 (  5) -0.1558 (  7)  0.2501 (  9) -0.2423 ( 10)
           0.2501 ( 11) -0.2423 ( 12)  0.2501 ( 13)  0.2501 ( 14)  0.3883 ( 15)
          -0.3479 ( 18) -0.3479 ( 19)  0.3883 ( 20)
 CRD  3=   0.1045 (  2)  0.3879 (  3)  0.3879 (  4)  0.2466 (  5)  0.2694 (  7)
           0.1702 ( 10)  0.1702 ( 12)  0.1834 ( 15)  0.1412 ( 18)  0.1412 ( 19)
           0.1834 ( 20) -0.1935 ( 21) -0.1935 ( 22) -0.2963 ( 23) -0.2168 ( 24)
           0.1688 ( 25) -0.2903 ( 26) -0.1984 ( 29)
 CRD  4=   0.2547 (  2)  0.2062 (  3)  0.2062 (  4) -0.1114 ( 16) -0.1114 ( 17)
           0.1781 ( 18)  0.1781 ( 19) -0.1111 ( 21) -0.1111 ( 22) -0.1848 ( 23)
           0.4107 ( 24) -0.3494 ( 25)  0.4362 ( 26)  0.4386 ( 29)
 CRD  5=  -0.4018 (  2)  0.4387 (  5) -0.6263 (  7)  0.1810 (  9)  0.1810 ( 11)
           0.1810 ( 13)  0.1810 ( 14) -0.1150 ( 15)  0.1594 ( 18)  0.1594 ( 19)
          -0.1150 ( 20)
 CRD  6=   0.2415 (  2)  0.2989 (  5)  0.7512 (  6) -0.1005 ( 18) -0.1005 ( 19)
           0.1690 ( 24)  0.2356 ( 25) -0.1103 ( 27)  0.2560 ( 28)  0.1714 ( 30)
          -0.1949 ( 31)
 CRD  7=   0.5613 (  2)  0.5412 (  5) -0.3303 (  6) -0.1427 ( 15) -0.1430 ( 18)
          -0.1430 ( 19) -0.1427 ( 20)  0.3404 ( 23) -0.1587 ( 28) -0.1273 ( 30)
           0.1310 ( 31)
 CRD  8=  -0.1481 (  5)  0.1436 (  6) -0.1390 (  7)  0.1821 ( 24) -0.2400 ( 25)
          -0.2432 ( 26) -0.4742 ( 27) -0.4983 ( 28) -0.1199 ( 29) -0.3749 ( 30)
          -0.3508 ( 31)
 CRD  9=  -0.2538 (  2)  0.3205 (  5)  0.5069 (  7) -0.3655 ( 10) -0.3655 ( 12)
           0.3130 ( 21)  0.3130 ( 22)  0.1019 ( 24) -0.1274 ( 25) -0.1185 ( 27)
          -0.1240 ( 28)
 CRD 10=   0.1445 (  2) -0.3886 (  6) -0.1953 ( 23)  0.1660 ( 24)  0.1591 ( 25)
           0.1968 ( 26)  0.3990 ( 28) -0.3731 ( 29) -0.1709 ( 30) -0.5812 ( 31)
 CRD 11=   0.4187 (  2) -0.1175 (  5)  0.1525 (  6) -0.3933 (  7) -0.1266 (  9)
          -0.1892 ( 10) -0.1266 ( 11) -0.1892 ( 12) -0.1266 ( 13) -0.1266 ( 14)
           0.2414 ( 18)  0.2414 ( 19)  0.3156 ( 21)  0.3156 ( 22) -0.2634 ( 23)
          -0.1954 ( 24) -0.1360 ( 26)  0.1449 ( 31)
 CRD 12=  -0.1153 (  2) -0.2825 (  3) -0.2825 (  4)  0.4407 (  5)  0.1153 (  6)
          -0.1484 (  9)  0.1610 ( 10) -0.1484 ( 11)  0.1610 ( 12) -0.1484 ( 13)
          -0.1484 ( 14)  0.3628 ( 15)  0.1356 ( 16)  0.1356 ( 17)  0.3628 ( 20)
          -0.2856 ( 23) -0.2114 ( 25)  0.1376 ( 26)  0.1395 ( 29)
 CRD 13=  -0.2676 (  2)  0.4187 (  3)  0.4187 (  4) -0.2532 (  7) -0.2261 (  9)
          -0.2261 ( 11) -0.2261 ( 13) -0.2261 ( 14) -0.2756 ( 18) -0.2756 ( 19)
           0.1712 ( 21)  0.1712 ( 22)  0.1887 ( 23)  0.1180 ( 24)  0.1098 ( 29)
 CRD 14=  -0.3051 (  6)  0.2320 ( 16)  0.2320 ( 17) -0.1032 ( 23)  0.1392 ( 24)
           0.1500 ( 25) -0.2313 ( 26) -0.5255 ( 27)  0.2628 ( 29)  0.5681 ( 30)
 CRD 15=   0.1889 (  3)  0.1889 (  4)  0.1233 (  6)  0.5674 ( 16)  0.5674 ( 17)
          -0.2435 ( 24) -0.2699 ( 25)  0.1552 ( 26)  0.1195 ( 27)  0.1584 ( 28)
          -0.1051 ( 31)

 THE DETERMINANT OF THE G MATRIX IS 10**(    -4)


                     --------------------
                     INTERNAL COORDINATES
                     --------------------

                 - - ATOMS - -         COORDINATE      COORDINATE
 NO.   TYPE    I  J  K  L  M  N        (BOHR,RAD)       (ANG,DEG)
 ----------------------------------------------------------------
   1 STRETCH   2  3                     2.8457737       1.5059187
   2 STRETCH   1  5                     1.9816334       1.0486353
   3 STRETCH   1  2                     2.4591302       1.3013157
   4 STRETCH   1  2                     2.4591302       1.3013157
   5 STRETCH   1  6                     1.9786941       1.0470799
   6 STRETCH   1  7                     3.0098504       1.5927444
   7 STRETCH   2  4                     2.0516978       1.0857118
   8 STRETCH   2  3                     2.8457737       1.5059187
   9 BEND      1  2  3                  2.1180054     121.3527699
  10 BEND      1  2  4                  2.0936313     119.9562369
  11 BEND      1  2  3                  2.1180054     121.3527699
  12 BEND      1  2  4                  2.0936313     119.9562369
  13 BEND      1  2  3                  2.1180054     121.3527699
  14 BEND      1  2  3                  2.1180054     121.3527699
  15 BEND      2  1  5                  2.0884728     119.6606772
  16 BEND      2  1  7                  1.8001151     103.1390007
  17 BEND      2  1  7                  1.8001151     103.1390007
  18 BEND      2  1  6                  2.0602370     118.0428832
  19 BEND      2  1  6                  2.0602370     118.0428832
  20 BEND      2  1  5                  2.0884728     119.6606772
  21 BEND      3  2  4                  2.0715470     118.6909029
  22 BEND      3  2  4                  2.0715470     118.6909029
  23 BEND      5  1  6                  2.0940334     119.9792760
  24 BEND      5  1  7                  1.5884294      91.0102984
  25 BEND      6  1  7                  1.5899883      91.0996176
  26 TORSION   3  2  1  7               1.5730664      90.1300664
  27 TORSION   3  2  1  5              -0.1521097      -8.7152420
  28 TORSION   3  2  1  6              -2.9921251    -171.4361388
  29 TORSION   4  2  1  7              -1.5665934     -89.7591924
  30 TORSION   4  2  1  6               0.1514004       8.6746024
  31 TORSION   4  2  1  5               2.9914158     171.3954992

     ------------------------------------------
     THE POINT GROUP IS C1 , NAXIS= 0, ORDER= 1
     ------------------------------------------

     DIMENSIONS OF THE SYMMETRY SUBSPACES ARE
 A   =   23

 ..... DONE SETTING UP THE RUN .....
 STEP CPU TIME =     0.05 TOTAL CPU TIME =          0.0 (      0.0 MIN)
 TOTAL WALL CLOCK TIME=          0.1 SECONDS, CPU UTILIZATION IS    71.43%


          -----------------------------
          STATIONARY POINT LOCATION RUN
          -----------------------------


           ** GEOMETRY CONSTRAINTS ARE BEING APPLIED. **

          TRANSFORMING DISPLACEMENT FROM INTERNALS TO CARTESIANS
          THE ROOT MEAN SQUARE ERROR IN ITERATION   1 IS   0.00000379
          THE ROOT MEAN SQUARE ERROR IN ITERATION   2 IS   0.00000000
 WARNING! THE RADIUS IN CARTESIANS IS    0.01509
 OBTAINING INITIAL HESSIAN, HESS=CALC    

     ---------------------------------
     HESSIAN MATRIX CONTROL PARAMETERS
     ---------------------------------
     METHOD=ANALYTIC   NVIB  =       2   VIBSIZ= 0.01000
     RDHESS=       F   PURIFY=       F   PRTIFC=       F
     VIBANL=       F   DECOMP=       F   PROJCT=       F
     SCLFAC= 1.00000   PRTSCN=       F   NPRT  =       0
     PULCOR=       F   NPUN  =       0   REDOVB=       T
     HSSTYP=GENERAL 
 Old integral subroutine is used

     ------------------------------
     CPHF RESPONSE SOLUTION OPTIONS
     ------------------------------
     POLAR  =       F     NWORD  =       0
     CPHF   =AO      

          ********************
          1 ELECTRON INTEGRALS
          ********************
 ...... END OF ONE-ELECTRON INTEGRALS ......
 STEP CPU TIME =     0.04 TOTAL CPU TIME =          0.1 (      0.0 MIN)
 TOTAL WALL CLOCK TIME=          0.1 SECONDS, CPU UTILIZATION IS    90.00%

          -------------
          GUESS OPTIONS
          -------------
          GUESS =HUCKEL            NORB  =       0          NORDER=       0
          MIX   =       F          PRTMO =       F          PUNMO =       F
          TOLZ  = 1.0E-08          TOLE  = 1.0E-05
          SYMDEN=       F          PURIFY=       F

 INITIAL GUESS ORBITALS GENERATED BY HUCKEL   ROUTINE.
 HUCKEL GUESS REQUIRES     10848 WORDS.

 SYMMETRIES FOR INITIAL GUESS ORBITALS FOLLOW.  ALPHA SET(S).
    17 ORBITALS ARE OCCUPIED (    7 CORE ORBITALS).
     8=A        9=A       10=A       11=A       12=A       13=A       14=A   
    15=A       16=A       17=A       18=A       19=A       20=A       21=A   
    22=A       23=A   

 SYMMETRIES FOR INITIAL GUESS ORBITALS FOLLOW.   BETA SET(S).
    16 ORBITALS ARE OCCUPIED (    7 CORE ORBITALS).
     8=A        9=A       10=A       11=A       12=A       13=A       14=A   
    15=A       16=A       17=A       18=A       19=A       20=A       21=A   
    22=A       23=A   
 ...... END OF INITIAL ORBITAL SELECTION ......
 STEP CPU TIME =     0.02 TOTAL CPU TIME =          0.1 (      0.0 MIN)
 TOTAL WALL CLOCK TIME=          0.1 SECONDS, CPU UTILIZATION IS    91.67%

                    ----------------------
                    AO INTEGRAL TECHNOLOGY
                    ----------------------
     S,P,L SHELL ROTATED AXIS INTEGRALS, REPROGRAMMED BY
        KAZUYA ISHIMURA (IMS) AND JOSE SIERRA (SYNSTAR).
     S,P,D,L SHELL ROTATED AXIS INTEGRALS PROGRAMMED BY
        KAZUYA ISHIMURA (INSTITUTE FOR MOLECULAR SCIENCE).
     S,P,D,F,G SHELL TO TOTAL QUARTET ANGULAR MOMENTUM SUM 5,
        ERIC PROGRAM BY GRAHAM FLETCHER (ELORET AND NASA ADVANCED
        SUPERCOMPUTING DIVISION, AMES RESEARCH CENTER).
     S,P,D,F,G,L SHELL GENERAL RYS QUADRATURE PROGRAMMED BY
        MICHEL DUPUIS (PACIFIC NORTHWEST NATIONAL LABORATORY).

          --------------------
          2 ELECTRON INTEGRALS
          --------------------

 THE -PK- OPTION IS OFF, THE INTEGRALS ARE NOT IN SUPERMATRIX FORM.
 STORING   15000 INTEGRALS/RECORD ON DISK, USING 12 BYTES/INTEGRAL.
 TWO ELECTRON INTEGRAL EVALUATION REQUIRES   89422 WORDS OF MEMORY.
 SCHWARZ INEQUALITY OVERHEAD:       271 INTEGRALS, T=        0.00
 II,JST,KST,LST =  1  1  1  1 NREC =         1 INTLOC =    1
 II,JST,KST,LST =  2  1  1  1 NREC =         1 INTLOC =    2
 II,JST,KST,LST =  3  1  1  1 NREC =         1 INTLOC =   34
 II,JST,KST,LST =  4  1  1  1 NREC =         1 INTLOC =  143
 II,JST,KST,LST =  5  1  1  1 NREC =         1 INTLOC = 1363
 II,JST,KST,LST =  6  1  1  1 NREC =         1 INTLOC = 1899
 II,JST,KST,LST =  7  1  1  1 NREC =         1 INTLOC = 6175
 II,JST,KST,LST =  8  1  1  1 NREC =         2 INTLOC =  866
 II,JST,KST,LST =  9  1  1  1 NREC =         2 INTLOC = 4745
 II,JST,KST,LST = 10  1  1  1 NREC =         2 INTLOC = 9241
 II,JST,KST,LST = 11  1  1  1 NREC =         2 INTLOC =14419
 SCHWARZ INEQUALITY TEST SKIPPED         208 INTEGRAL BLOCKS.
 TOTAL NUMBER OF NONZERO TWO-ELECTRON INTEGRALS =               35330
          3 INTEGRAL RECORDS WERE STORED ON DISK FILE  8.
  ...... END OF TWO-ELECTRON INTEGRALS .....
 STEP CPU TIME =     0.01 TOTAL CPU TIME =          0.1 (      0.0 MIN)
 TOTAL WALL CLOCK TIME=          0.1 SECONDS, CPU UTILIZATION IS    85.71%

          ---------------------------
                  UHF SCF CALCULATION
          ---------------------------

     NUCLEAR ENERGY =       111.8377824865
     MAXIT = 30     NPUNCH=  2     MULT=  2
     EXTRAP=T  DAMP=F  SHIFT=F  RSTRCT=F  DIIS=F  SOSCF=T
     DENSITY MATRIX CONV=  1.00E-05
     SOSCF WILL OPTIMIZE     102 ALPHA AND     112 BETA ROTATION ANGLES.
     SOGTOL= 2.500E-01
     MEMORY REQUIRED FOR UHF/ROHF ITERS=     37156 WORDS.

 ITER EX      TOTAL ENERGY        E CHANGE  DENSITY CHANGE    ORB. GRAD 
   1  0     -547.2114357425  -547.2114357425   0.637972675   0.000000000
          ---------------START SECOND ORDER SCF---------------
   2  1     -547.5729630233    -0.3615272808   0.201918327   0.081613409
   3  2     -547.6113835925    -0.0384205692   0.086517794   0.043206827
   4  3     -547.6235523900    -0.0121687975   0.077232649   0.024066211
   5  4     -547.6280822137    -0.0045298237   0.029621116   0.007461922
   6  5     -547.6289944771    -0.0009122634   0.065814497   0.005797510
   7  6     -547.6299836410    -0.0009891639   0.006929667   0.004905322
   8  7     -547.6300581775    -0.0000745365   0.005251038   0.001685281
   9  8     -547.6300743081    -0.0000161306   0.000707466   0.000187083
  10  9     -547.6300747473    -0.0000004392   0.000283278   0.000080008
  11 10     -547.6300748385    -0.0000000912   0.000133748   0.000032325
  12 11     -547.6300748539    -0.0000000155   0.000042627   0.000011166
  13 12     -547.6300748559    -0.0000000020   0.000012742   0.000005274
  14 13     -547.6300748562    -0.0000000002   0.000005429   0.000001916
  15 14     -547.6300748562    -0.0000000000   0.000001859   0.000000470

          -----------------
          DENSITY CONVERGED
          -----------------
     TIME TO FORM FOCK OPERATORS=       0.0 SECONDS (       0.0 SEC/ITER)
     TIME TO SOLVE SCF EQUATIONS=       0.0 SECONDS (       0.0 SEC/ITER)

 FINAL UHF ENERGY IS     -547.6300748562 AFTER  15 ITERATIONS

          --------------------
          SPIN SZ   =    0.500
          S-SQUARED =    0.967
          --------------------

  ----- ALPHA SET ----- 

          ------------
          EIGENVECTORS
          ------------

                      1          2          3          4          5
                 -103.9869   -15.8225   -11.4541   -10.6709    -8.1136
                     A          A          A          A          A   
    1  N  1  S    0.000002   0.993549   0.000237  -0.000019   0.000024
    2  N  1  S   -0.000044   0.031458  -0.006830   0.000859  -0.000929
    3  N  1  X   -0.000002   0.001908  -0.003884   0.000014  -0.000237
    4  N  1  Y   -0.000015  -0.000041  -0.000502   0.000056  -0.000085
    5  N  1  Z   -0.000024   0.000090  -0.000175   0.000155  -0.000142
    6  C  2  S   -0.000063   0.000458   0.991879   0.001243  -0.000755
    7  C  2  S    0.000656  -0.006829   0.037471  -0.012795   0.016971
    8  C  2  X    0.000232   0.004994  -0.000820  -0.003970   0.004942
    9  C  2  Y    0.000296   0.000504   0.001365  -0.005043   0.006264
   10  C  2  Z    0.000333  -0.000277   0.001759  -0.005672   0.007053
   11  CL 3  S    0.994490   0.000003   0.000012  -0.376687  -0.007077
   12  CL 3  S    0.015779   0.000017  -0.000389   1.052515   0.019963
   13  CL 3  X   -0.000092   0.000036  -0.000309  -0.008355   0.491016
   14  CL 3  Y   -0.000105   0.000005  -0.000318  -0.008818   0.574246
   15  CL 3  Z   -0.000117  -0.000001  -0.000349  -0.009800   0.635008
   16  CL 3  S   -0.002084   0.000334  -0.007325   0.049538  -0.010926
   17  CL 3  X    0.000226  -0.000366   0.003115  -0.005027   0.026070
   18  CL 3  Y    0.000268  -0.000084   0.003369  -0.005838   0.030610
   19  CL 3  Z    0.000299  -0.000033   0.003716  -0.006500   0.033926
   20  H  4  S   -0.000001   0.000321  -0.006736   0.000005  -0.000361
   21  H  5  S    0.000045  -0.005571  -0.000317  -0.000873   0.000533
   22  H  6  S    0.000006  -0.005580  -0.000389  -0.000145   0.000140
   23  H  7  S   -0.000000  -0.002019  -0.000722  -0.000007  -0.000035

                      6          7          8          9         10
                   -8.1091    -8.1061    -1.5634    -1.3875    -1.1086
                     A          A          A          A          A   
    1  N  1  S    0.000003   0.000052  -0.175355   0.127677   0.054618
    2  N  1  S   -0.000007  -0.001563   0.564753  -0.441899  -0.230777
    3  N  1  X   -0.000015  -0.000522   0.108094   0.030707   0.405817
    4  N  1  Y    0.000283   0.000216   0.009947   0.030790  -0.029103
    5  N  1  Z   -0.000288   0.000252   0.010965   0.012334  -0.152443
    6  C  2  S    0.000002  -0.000047  -0.153715  -0.067406  -0.144667
    7  C  2  S   -0.000048   0.000146   0.369636   0.179454   0.478219
    8  C  2  X    0.000500  -0.004794  -0.091534   0.176675  -0.064948
    9  C  2  Y   -0.003583   0.000916   0.034070   0.108810  -0.116954
   10  C  2  Z    0.002807   0.001996   0.054000   0.107611  -0.143868
   11  CL 3  S    0.000049  -0.000263   0.029539   0.065492  -0.035905
   12  CL 3  S   -0.000140   0.000748  -0.101361  -0.221033   0.116206
   13  CL 3  X   -0.109422   0.851321   0.024333   0.028399   0.001278
   14  CL 3  Y    0.769982  -0.233885   0.022460   0.034777   0.013401
   15  CL 3  Z   -0.611666  -0.446721   0.024275   0.039181   0.017401
   16  CL 3  S    0.000031   0.000069   0.264646   0.649730  -0.430315
   17  CL 3  X   -0.004543   0.035067  -0.058559  -0.077944   0.001360
   18  CL 3  Y    0.031775  -0.009742  -0.054896  -0.089821  -0.036319
   19  CL 3  Z   -0.025281  -0.018527  -0.059460  -0.100654  -0.048203
   20  H  4  S   -0.000004   0.000514   0.041717   0.026337   0.175833
   21  H  5  S    0.000101   0.001018   0.075787  -0.083405  -0.237336
   22  H  6  S   -0.000018   0.000170   0.071862  -0.098520  -0.098461
   23  H  7  S   -0.000086   0.000027   0.025387  -0.035105  -0.060705

                     11         12         13         14         15
                   -1.0224    -0.9294    -0.8783    -0.8068    -0.7184
                     A          A          A          A          A   
    1  N  1  S    0.009179   0.011286   0.005855  -0.007200   0.015732
    2  N  1  S   -0.051202  -0.029869  -0.020347   0.029577  -0.065572
    3  N  1  X    0.241523  -0.332922  -0.057212   0.084727  -0.002914
    4  N  1  Y    0.363825   0.122687   0.342263   0.159139   0.219589
    5  N  1  Z    0.381672   0.270137  -0.255363   0.186211  -0.176922
    6  C  2  S   -0.010953  -0.065697   0.002239   0.022373   0.002630
    7  C  2  S    0.035619   0.268716  -0.008164  -0.103758  -0.011018
    8  C  2  X   -0.226781   0.416361  -0.022873  -0.078023   0.032380
    9  C  2  Y    0.121299  -0.047040   0.420044  -0.326014  -0.173176
   10  C  2  Z    0.181849  -0.089136  -0.350867  -0.378967   0.143523
   11  CL 3  S   -0.017282  -0.028631  -0.000393   0.028906  -0.000162
   12  CL 3  S    0.054976   0.088749   0.001256  -0.085971   0.000506
   13  CL 3  X    0.045140  -0.012736   0.005937  -0.113805  -0.021773
   14  CL 3  Y    0.001982   0.057466  -0.077516  -0.092285   0.153702
   15  CL 3  Z   -0.004355   0.067386   0.065713  -0.101555  -0.119762
   16  CL 3  S   -0.222138  -0.399002  -0.005032   0.453179  -0.002305
   17  CL 3  X   -0.137263   0.052335  -0.019915   0.361390   0.076995
   18  CL 3  Y   -0.000695  -0.171830   0.258343   0.284822  -0.543600
   19  CL 3  Z    0.019903  -0.201808  -0.218565   0.313196   0.423969
   20  H  4  S   -0.123255   0.253767   0.014138   0.230319  -0.003519
   21  H  5  S    0.158071   0.276564  -0.028585   0.156863  -0.069671
   22  H  6  S   -0.347310  -0.076819  -0.046998  -0.205939  -0.068253
   23  H  7  S   -0.031066   0.016494   0.359252  -0.012087   0.594609

                     16         17         18         19         20
                   -0.6531    -0.5340    -0.0528     0.2284     0.2369
                     A          A          A          A          A   
    1  N  1  S   -0.030528   0.024526  -0.040367  -0.172720   0.031861
    2  N  1  S    0.152611  -0.112620   0.219855   1.160165  -0.213747
    3  N  1  X    0.164272   0.073820  -0.189010  -0.353174  -0.089442
    4  N  1  Y    0.028793  -0.172432   0.663246  -0.143946   0.392221
    5  N  1  Z    0.006788   0.144346  -0.536006   0.200624   0.459338
    6  C  2  S    0.015439  -0.000139   0.004270   0.028196  -0.084051
    7  C  2  S   -0.074098   0.001360  -0.020615  -0.144382   0.553546
    8  C  2  X   -0.058260   0.055967   0.085837   0.246768   0.126575
    9  C  2  Y    0.068881  -0.470574  -0.473500   0.117606   0.429011
   10  C  2  Z    0.100965   0.379241   0.373562   0.006995   0.526475
   11  CL 3  S    0.001213  -0.000240   0.000464  -0.000330  -0.021054
   12  CL 3  S   -0.004321   0.000775  -0.001427  -0.000605   0.051111
   13  CL 3  X   -0.233829   0.015482   0.011928   0.013709  -0.096454
   14  CL 3  Y    0.069566  -0.138150  -0.049577  -0.008118  -0.101889
   15  CL 3  Z    0.126425   0.109616   0.040709  -0.020717  -0.112313
   16  CL 3  S    0.009031  -0.003073   0.006873  -0.025860  -0.486410
   17  CL 3  X    0.847519  -0.057955  -0.047501  -0.052850   0.429326
   18  CL 3  Y   -0.249185   0.517700   0.199382   0.038448   0.456390
   19  CL 3  Z   -0.454757  -0.410803  -0.163374   0.091526   0.502879
   20  H  4  S   -0.215158  -0.004423   0.013937   0.087993   0.219852
   21  H  5  S   -0.055736  -0.060548  -0.040351  -0.926276  -0.507888
   22  H  6  S   -0.045779  -0.058317  -0.039428  -0.752484   0.707037
   23  H  7  S   -0.026605   0.626179  -0.479659   0.014432  -0.007970

                     21         22         23
                    0.3178     0.5091     0.5283
                     A          A          A   
    1  N  1  S    0.025470  -0.020911  -0.085812
    2  N  1  S   -0.164406   0.148855   0.673550
    3  N  1  X   -0.292956   0.258960   0.988892
    4  N  1  Y   -0.292956  -0.435276   0.185235
    5  N  1  Z   -0.313602  -0.593224   0.034147
    6  C  2  S   -0.196211   0.050553   0.075656
    7  C  2  S    1.288779  -0.332641  -0.528459
    8  C  2  X    0.332104   0.106378   1.198867
    9  C  2  Y    0.044638   0.619098   0.009894
   10  C  2  Z    0.000554   0.760864  -0.168442
   11  CL 3  S   -0.018573  -0.012946  -0.002626
   12  CL 3  S    0.045192   0.028161   0.005781
   13  CL 3  X   -0.061017  -0.056966   0.032733
   14  CL 3  Y   -0.091158  -0.051996  -0.023293
   15  CL 3  Z   -0.103835  -0.054830  -0.033431
   16  CL 3  S   -0.425770  -0.344364  -0.072486
   17  CL 3  X    0.279059   0.274980  -0.142029
   18  CL 3  Y    0.410146   0.254967   0.110618
   19  CL 3  Z    0.466593   0.270376   0.157132
   20  H  4  S   -0.894184   0.830103  -0.360264
   21  H  5  S    0.295577   0.531173   0.094345
   22  H  6  S   -0.395845  -0.471468   0.231619
   23  H  7  S   -0.006544  -0.001718   0.000566

  ----- BETA SET ----- 

          ------------
          EIGENVECTORS
          ------------

                      1          2          3          4          5
                 -103.9861   -15.8385   -11.4357   -10.6698    -8.1147
                     A          A          A          A          A   
    1  N  1  S    0.000002   0.993172   0.000227  -0.000020   0.000023
    2  N  1  S   -0.000044   0.033245  -0.006291   0.000848  -0.000914
    3  N  1  X   -0.000002   0.001985  -0.003482   0.000007  -0.000230
    4  N  1  Y   -0.000015  -0.000007  -0.000482   0.000053  -0.000085
    5  N  1  Z   -0.000023   0.000065  -0.000170   0.000150  -0.000137
    6  C  2  S   -0.000063   0.000479   0.992522   0.001090  -0.000723
    7  C  2  S    0.000653  -0.007242   0.034518  -0.012676   0.016870
    8  C  2  X    0.000232   0.005309  -0.000723  -0.003948   0.004930
    9  C  2  Y    0.000295   0.000530   0.001351  -0.005016   0.006264
   10  C  2  Z    0.000332  -0.000290   0.001702  -0.005637   0.007000
   11  CL 3  S    0.994492   0.000003  -0.000016  -0.376691  -0.007107
   12  CL 3  S    0.015773   0.000018  -0.000290   1.052542   0.020049
   13  CL 3  X   -0.000092   0.000040  -0.000281  -0.008394   0.490098
   14  CL 3  Y   -0.000105   0.000006  -0.000287  -0.008853   0.569262
   15  CL 3  Z   -0.000117  -0.000001  -0.000316  -0.009859   0.640241
   16  CL 3  S   -0.002080   0.000355  -0.006662   0.049403  -0.010908
   17  CL 3  X    0.000225  -0.000393   0.002834  -0.005017   0.025955
   18  CL 3  Y    0.000268  -0.000089   0.003052  -0.005827   0.030315
   19  CL 3  Z    0.000299  -0.000032   0.003371  -0.006488   0.034038
   20  H  4  S   -0.000001   0.000341  -0.006119  -0.000007  -0.000352
   21  H  5  S    0.000045  -0.005900  -0.000288  -0.000869   0.000528
   22  H  6  S    0.000006  -0.005910  -0.000360  -0.000146   0.000140
   23  H  7  S   -0.000000  -0.002078  -0.000587  -0.000015  -0.000035

                      6          7          8          9         10
                   -8.1055    -8.1035    -1.5816    -1.3893    -1.0905
                     A          A          A          A          A   
    1  N  1  S    0.000053   0.000004  -0.210605   0.095388   0.041037
    2  N  1  S   -0.001558  -0.000050   0.718571  -0.346791  -0.183444
    3  N  1  X   -0.000518  -0.000029   0.090932   0.062668   0.488602
    4  N  1  Y    0.000211   0.000291   0.014849   0.029148  -0.051416
    5  N  1  Z    0.000261  -0.000287   0.004647   0.022927  -0.182142
    6  C  2  S   -0.000047  -0.000004  -0.117849  -0.091530  -0.135766
    7  C  2  S    0.000176   0.000077   0.239725   0.227449   0.407351
    8  C  2  X   -0.004770   0.000430  -0.097570   0.138148  -0.103476
    9  C  2  Y    0.001004  -0.003548   0.019663   0.109891  -0.106923
   10  C  2  Z    0.001933   0.002929   0.038212   0.113496  -0.125153
   11  CL 3  S   -0.000276  -0.000002   0.020034   0.070651  -0.030560
   12  CL 3  S    0.000787   0.000006  -0.068358  -0.238301   0.099390
   13  CL 3  X    0.854518  -0.086347   0.018340   0.034236   0.003701
   14  CL 3  Y   -0.250455   0.768445   0.015680   0.039286   0.011587
   15  CL 3  Z   -0.431400  -0.617181   0.016801   0.043986   0.014883
   16  CL 3  S    0.000049  -0.000049   0.183636   0.702307  -0.360595
   17  CL 3  X    0.035170  -0.003569  -0.045385  -0.095006  -0.008344
   18  CL 3  Y   -0.010403   0.031912  -0.040607  -0.104035  -0.033998
   19  CL 3  Z   -0.017857  -0.025573  -0.043932  -0.115999  -0.044191
   20  H  4  S    0.000507   0.000006   0.035657   0.038819   0.180034
   21  H  5  S    0.001014   0.000127   0.080416  -0.056400  -0.240678
   22  H  6  S    0.000172  -0.000014   0.077367  -0.072930  -0.077529
   23  H  7  S    0.000026  -0.000079   0.003615  -0.005643  -0.012606

                     11         12         13         14         15
                   -1.0296    -0.9211    -0.8740    -0.7992    -0.6771
                     A          A          A          A          A   
    1  N  1  S    0.008085  -0.012974  -0.007956  -0.007146   0.004573
    2  N  1  S   -0.045994   0.041155   0.051545   0.030793  -0.029594
    3  N  1  X    0.250407   0.303159  -0.147403   0.088029   0.045755
    4  N  1  Y    0.391337  -0.096622   0.645614   0.140612  -0.264721
    5  N  1  Z    0.418677  -0.260860  -0.500265   0.180683   0.214431
    6  C  2  S   -0.013114   0.078130   0.002018   0.025165  -0.001825
    7  C  2  S    0.038235  -0.293334  -0.003381  -0.111210   0.006990
    8  C  2  X   -0.197760  -0.385069   0.013314  -0.072215  -0.029767
    9  C  2  Y    0.098765   0.062538   0.202977  -0.306572   0.171466
   10  C  2  Z    0.150423   0.119681  -0.180188  -0.361862  -0.144194
   11  CL 3  S   -0.018006   0.029093  -0.000304   0.029397  -0.000090
   12  CL 3  S    0.057652  -0.090739   0.000890  -0.087993   0.000351
   13  CL 3  X    0.040372   0.014904  -0.000220  -0.119532   0.033860
   14  CL 3  Y    0.001418  -0.058434  -0.043173  -0.097286  -0.202756
   15  CL 3  Z   -0.004050  -0.070841   0.040554  -0.105200   0.153945
   16  CL 3  S   -0.226505   0.398270  -0.004912   0.453736  -0.000314
   17  CL 3  X   -0.123016  -0.058134   0.000651   0.383716  -0.120484
   18  CL 3  Y    0.000361   0.177831   0.145399   0.304621   0.718927
   19  CL 3  Z    0.018013   0.216328  -0.135528   0.328609  -0.546159
   20  H  4  S   -0.110317  -0.316945   0.019707   0.243298   0.007871
   21  H  5  S    0.161731  -0.231275  -0.029920   0.133021   0.026762
   22  H  6  S   -0.332294   0.066159  -0.047816  -0.177341   0.026993
   23  H  7  S   -0.006552  -0.000765   0.126319  -0.004061  -0.063960

                     16         17         18         19         20
                   -0.6513    -0.0155     0.1087     0.2140     0.2443
                     A          A          A          A          A   
    1  N  1  S   -0.028464   0.006833   0.045399  -0.164160   0.016948
    2  N  1  S    0.148373  -0.060339  -0.253738   1.125946  -0.118190
    3  N  1  X    0.169793   0.059552   0.119395  -0.348561  -0.060885
    4  N  1  Y    0.007437  -0.201531  -0.332751  -0.173945   0.441154
    5  N  1  Z    0.023952   0.159370   0.273038   0.177003   0.527903
    6  C  2  S    0.016649  -0.003179  -0.004003   0.029233  -0.050845
    7  C  2  S   -0.075127   0.012531   0.034762  -0.146487   0.331245
    8  C  2  X   -0.039698  -0.115143  -0.026273   0.236443   0.081294
    9  C  2  Y    0.069540   0.737354   0.188135   0.128686   0.396781
   10  C  2  Z    0.092552  -0.591078  -0.132878  -0.046798   0.493849
   11  CL 3  S    0.001240  -0.000046  -0.001056   0.000524  -0.017093
   12  CL 3  S   -0.004442   0.000182   0.002885  -0.002736   0.041481
   13  CL 3  X   -0.231684  -0.014607  -0.008695   0.017839  -0.078589
   14  CL 3  Y    0.063211   0.093452   0.016663  -0.000465  -0.080098
   15  CL 3  Z    0.131880  -0.073120  -0.020265  -0.019732  -0.087690
   16  CL 3  S    0.008916  -0.000135  -0.020256  -0.006813  -0.395724
   17  CL 3  X    0.839429   0.057644   0.035716  -0.070734   0.351183
   18  CL 3  Y   -0.226219  -0.369732  -0.065545   0.006047   0.361207
   19  CL 3  Z   -0.473771   0.288831   0.082550   0.085520   0.395587
   20  H  4  S   -0.233564  -0.004791  -0.024170   0.060098   0.329259
   21  H  5  S   -0.055985   0.102136   0.001012  -0.902460  -0.631694
   22  H  6  S   -0.045487   0.096660   0.007463  -0.797744   0.755971
   23  H  7  S   -0.008041  -0.296171   1.000746   0.042425  -0.020219

                     21         22         23
                    0.3480     0.5149     0.5335
                     A          A          A   
    1  N  1  S    0.028128  -0.015178  -0.084303
    2  N  1  S   -0.187325   0.105775   0.677287
    3  N  1  X   -0.271551   0.193036   0.984218
    4  N  1  Y   -0.221711  -0.414609   0.156313
    5  N  1  Z   -0.244709  -0.554808  -0.003802
    6  C  2  S   -0.214774   0.052296   0.086293
    7  C  2  S    1.379409  -0.332331  -0.582878
    8  C  2  X    0.374267   0.017352   1.214316
    9  C  2  Y    0.132962   0.640116   0.049661
   10  C  2  Z    0.112539   0.800811  -0.121720
   11  CL 3  S   -0.023034  -0.012869  -0.002970
   12  CL 3  S    0.056132   0.027946   0.006264
   13  CL 3  X   -0.075637  -0.060032   0.031917
   14  CL 3  Y   -0.107276  -0.049502  -0.024772
   15  CL 3  Z   -0.120818  -0.051248  -0.035102
   16  CL 3  S   -0.528293  -0.342895  -0.085081
   17  CL 3  X    0.348478   0.289220  -0.136457
   18  CL 3  Y    0.487440   0.244805   0.118884
   19  CL 3  Z    0.548770   0.255549   0.166419
   20  H  4  S   -0.806114   0.883648  -0.286221
   21  H  5  S    0.229851   0.490810   0.127424
   22  H  6  S   -0.277029  -0.449882   0.202736
   23  H  7  S   -0.030626   0.000028   0.005693
 ...... END OF UHF CALCULATION ......
 STEP CPU TIME =     0.08 TOTAL CPU TIME =          0.2 (      0.0 MIN)
 TOTAL WALL CLOCK TIME=          0.2 SECONDS, CPU UTILIZATION IS    86.96%

     ----------------------------------------------------------------
     PROPERTY VALUES FOR THE UHF   SELF-CONSISTENT FIELD WAVEFUNCTION
     ----------------------------------------------------------------

          -----------------
          ENERGY COMPONENTS
          -----------------

         WAVEFUNCTION NORMALIZATION =       1.0000000000

                ONE ELECTRON ENERGY =    -967.8033292394
                TWO ELECTRON ENERGY =     308.3354718968
           NUCLEAR REPULSION ENERGY =     111.8377824865
                                      ------------------
                       TOTAL ENERGY =    -547.6300748562

 ELECTRON-ELECTRON POTENTIAL ENERGY =     308.3354718968
  NUCLEUS-ELECTRON POTENTIAL ENERGY =   -1506.4890054907
   NUCLEUS-NUCLEUS POTENTIAL ENERGY =     111.8377824865
                                      ------------------
             TOTAL POTENTIAL ENERGY =   -1086.3157511074
               TOTAL KINETIC ENERGY =     538.6856762513
                 VIRIAL RATIO (V/T) =       2.0166041144

          ---------------------------------------
          MULLIKEN AND LOWDIN POPULATION ANALYSES
          ---------------------------------------

     ATOMIC MULLIKEN POPULATION IN EACH MOLECULAR ORBITAL
        ALPHA ORBITALS

                      1          2          3          4          5

                  1.000000   1.000000   1.000000   1.000000   1.000000

    1            -0.000000   1.001320  -0.000574   0.000001   0.000002
    2             0.000009  -0.000623   1.001723  -0.001428  -0.000941
    3             0.999991   0.000002  -0.000663   1.001429   1.000939
    4            -0.000000   0.000002  -0.000477   0.000000   0.000001
    5             0.000000  -0.000331  -0.000003  -0.000002  -0.000001
    6             0.000000  -0.000333  -0.000003  -0.000000  -0.000000
    7            -0.000000  -0.000035  -0.000003  -0.000000   0.000000

                      6          7          8          9         10

                  1.000000   1.000000   1.000000   1.000000   1.000000

    1             0.000000   0.000001   0.476392   0.219111   0.353846
    2            -0.000060  -0.000068   0.312249   0.201361   0.286391
    3             1.000060   1.000068   0.137446   0.515629   0.144316
    4             0.000000   0.000001   0.011066   0.003247   0.077746
    5            -0.000000  -0.000001   0.030719   0.022082   0.111697
    6             0.000000  -0.000000   0.027196   0.033711   0.018403
    7            -0.000000  -0.000000   0.004931   0.004859   0.007601

                     11         12         13         14         15

                  1.000000   1.000000   1.000000   1.000000   1.000000

    1             0.491683   0.246956   0.275164   0.069570   0.101754
    2             0.159757   0.311915   0.401175   0.277689   0.058237
    3             0.066730   0.205633   0.148133   0.501251   0.477090
    4             0.036404   0.119873   0.000353   0.077333   0.000006
    5             0.039751   0.108273   0.000735   0.026675   0.003526
    6             0.203785   0.006757   0.002296   0.047284   0.003405
    7             0.001890   0.000593   0.172143   0.000197   0.355982

                     16         17

                  1.000000   1.000000

    1             0.028522   0.053568
    2             0.022056   0.293476
    3             0.891639   0.338415
    4             0.050787   0.000005
    5             0.003615   0.001787
    6             0.002530   0.001603
    7             0.000852   0.311145

     ATOMIC MULLIKEN POPULATION IN EACH MOLECULAR ORBITAL
         BETA ORBITALS

                      1          2          3          4          5

                  1.000000   1.000000   1.000000   1.000000   1.000000

    1            -0.000000   1.001406  -0.000518   0.000001   0.000002
    2             0.000009  -0.000665   1.001554  -0.001418  -0.000937
    3             0.999991   0.000002  -0.000599   1.001419   1.000934
    4            -0.000000   0.000002  -0.000430  -0.000000   0.000001
    5             0.000000  -0.000353  -0.000002  -0.000002  -0.000001
    6             0.000000  -0.000355  -0.000003  -0.000000  -0.000000
    7            -0.000000  -0.000037  -0.000003  -0.000000   0.000000

                      6          7          8          9         10

                  1.000000   1.000000   1.000000   1.000000   1.000000

    1             0.000001   0.000000   0.657589   0.126844   0.439167
    2            -0.000068  -0.000060   0.193577   0.219157   0.256860
    3             1.000067   1.000060   0.069563   0.618148   0.103329
    4             0.000001   0.000000   0.007360   0.006494   0.074913
    5            -0.000001  -0.000000   0.037065   0.009895   0.113700
    6            -0.000000   0.000000   0.034132   0.019019   0.011120
    7            -0.000000  -0.000000   0.000714   0.000443   0.000911

                     11         12         13         14         15

                  1.000000   1.000000   1.000000   1.000000   1.000000

    1             0.546328   0.195250   0.767799   0.058086   0.102058
    2             0.124168   0.328319   0.135307   0.262974   0.072799
    3             0.062739   0.218180   0.050863   0.542228   0.816522
    4             0.028481   0.176447   0.000631   0.081835   0.000066
    5             0.043850   0.076932   0.001032   0.019341   0.000645
    6             0.194199   0.004860   0.002739   0.035491   0.000683
    7             0.000234   0.000011   0.041629   0.000045   0.007227

                     16

                  1.000000

    1             0.026856
    2             0.020911
    3             0.887992
    4             0.057741
    5             0.003739
    6             0.002585
    7             0.000176

     ATOMIC SPIN POPULATION (ALPHA MINUS BETA)
       ATOM         MULL.POP.                    LOW.POP.
    1 N            -0.603554                    -0.535847
    2 C             0.710432                     0.646074
    3 CL            0.056670                     0.074531
    4 H            -0.057197                    -0.041546
    5 H             0.042683                     0.034675
    6 H             0.042162                     0.034150
    7 H             0.808806                     0.787962


          ********* ALL ELECTRONS ********

               ----- POPULATIONS IN EACH AO -----
                             MULLIKEN      LOWDIN
              1  N  1  S      1.99510     1.99139
              2  N  1  S      1.50885     1.26744
              3  N  1  X      1.18371     1.19303
              4  N  1  Y      1.27987     1.26403
              5  N  1  Z      1.27066     1.25178
              6  C  2  S      1.99289     1.98651
              7  C  2  S      1.11026     1.02958
              8  C  2  X      0.83966     0.91976
              9  C  2  Y      0.97881     1.00122
             10  C  2  Z      1.01378     1.03472
             11  CL 3  S      1.99995     1.99984
             12  CL 3  S      1.99846     1.99890
             13  CL 3  X      1.99609     1.99358
             14  CL 3  Y      1.99375     1.98918
             15  CL 3  Z      1.99295     1.98805
             16  CL 3  S      1.92306     1.83930
             17  CL 3  X      1.75725     1.77343
             18  CL 3  Y      1.59263     1.61309
             19  CL 3  Z      1.54540     1.57332
             20  H  4  S      0.80989     0.87908
             21  H  5  S      0.65436     0.74301
             22  H  6  S      0.65110     0.74035
             23  H  7  S      0.91151     0.92941

          ----- MULLIKEN ATOMIC OVERLAP POPULATIONS -----
          (OFF-DIAGONAL ELEMENTS NEED TO BE MULTIPLIED BY 2)

             1           2           3           4           5

    1    6.1505625
    2    0.4321905   4.9181412
    3   -0.0445760   0.2763502  16.5974339
    4   -0.0234688   0.3915922  -0.0308365   0.4746072
    5    0.3340560  -0.0285936  -0.0015713   0.0021257   0.3772813
    6    0.3355474  -0.0279332   0.0018121  -0.0041816  -0.0189404
    7    0.0538737  -0.0263405   0.0009341   0.0000525  -0.0099958

             6           7

    6    0.3745768
    7   -0.0097781   0.9027600

          TOTAL MULLIKEN AND LOWDIN ATOMIC POPULATIONS
       ATOM         MULL.POP.    CHARGE          LOW.POP.     CHARGE
    1 N             7.238185   -0.238185         6.967673    0.032327
    2 C             5.935407    0.064593         5.971785    0.028215
    3 CL           16.799546    0.200454        16.768693    0.231307
    4 H             0.809891    0.190109         0.879080    0.120920
    5 H             0.654362    0.345638         0.743009    0.256991
    6 H             0.651103    0.348897         0.740348    0.259652
    7 H             0.911506    0.088494         0.929411    0.070589

          -------------------------------
          BOND ORDER AND VALENCE ANALYSIS     BOND ORDER THRESHOLD=0.050
          -------------------------------

                   BOND                       BOND                       BOND
  ATOM PAIR DIST  ORDER      ATOM PAIR DIST  ORDER      ATOM PAIR DIST  ORDER
    1   2  1.301  1.313        1   3  2.444  0.082        1   5  1.049  0.844
    1   6  1.047  0.847        1   7  1.593  0.250        2   3  1.500  1.255
    2   4  1.086  0.924        2   7  2.274  0.074

                       TOTAL       BONDED        FREE
      ATOM            VALENCE     VALENCE     VALENCE
    1 N                 3.554       3.340       0.214
    2 C                 3.891       3.582       0.309
    3 CL                1.400       1.389       0.011
    4 H                 0.964       0.961       0.003
    5 H                 0.881       0.879       0.002
    6 H                 0.878       0.876       0.002
    7 H                 0.992       0.338       0.654

          -----------------------------------------
          ATOMIC SPIN DENSITY AT THE NUCLEUS (A.U.)
          -----------------------------------------
                            SPIN DENS    ALPHA DENS     BETA DENS
    1  N            7.0    -0.1601405      63.15628      63.31642
    2  C            6.0     0.1444525      38.75281      38.60836
    3  CL          17.0     0.0232718    1011.92158    1011.89831
    4  H            1.0    -0.0202037       0.14822       0.16843
    5  H            1.0     0.0166340       0.14169       0.12506
    6  H            1.0     0.0163691       0.14149       0.12512
    7  H            1.0     0.3361773       0.34966       0.01348

          ---------------------
          ELECTROSTATIC MOMENTS
          ---------------------

 POINT   1           X           Y           Z (BOHR)    CHARGE
               -11.072319    6.210631    0.631288        1.00 (A.U.)
         DX          DY          DZ         /D/  (DEBYE)
    -5.072315   -2.562376   -2.596998    6.248084
 ...... END OF PROPERTY EVALUATION ......
 STEP CPU TIME =     0.03 TOTAL CPU TIME =          0.2 (      0.0 MIN)
 TOTAL WALL CLOCK TIME=          0.3 SECONDS, CPU UTILIZATION IS    88.46%
 TURNING OFF IN-CORE INTEGRALS...

     ---------------------------------------------
     1ST AND 2ND INTEGRAL DERIVATIVE CONTRIBUTIONS
     ---------------------------------------------
 ...... END OF 1-ELECTRON GRAD+HESS+FOCKDER ......
 STEP CPU TIME =     0.03 TOTAL CPU TIME =          0.3 (      0.0 MIN)
 TOTAL WALL CLOCK TIME=          0.3 SECONDS, CPU UTILIZATION IS    89.66%

     ----------------------------------------------
     TWO ELECTRON INTEGRAL DERIVATIVE CONTRIBUTIONS
     ----------------------------------------------

      22084 WORDS REQUIRED,    998196 WORDS AVAILABLE
 THE COARSE/FINE SCHWARZ SCREENINGS SKIPPED        206/         7 BLOCKS.
 THE NUMBER OF DERIVATIVE INTEGRAL BLOCKS COMPUTED WAS      1961
 STEP CPU TIME =     0.49 TOTAL CPU TIME =          0.8 (      0.0 MIN)
 TOTAL WALL CLOCK TIME=          0.8 SECONDS, CPU UTILIZATION IS    96.15%
 ...... END OF 2-ELECTRON GRAD+HESS+FOCKDER ......
 STEP CPU TIME =     0.00 TOTAL CPU TIME =          0.8 (      0.0 MIN)
 TOTAL WALL CLOCK TIME=          0.8 SECONDS, CPU UTILIZATION IS    96.15%

     -----------------------------------------
     COUPLED-PERTURBED OPEN SHELL HARTREE-FOCK
     -----------------------------------------
 THE CPHF HAS     102 INDEPENDENT ORBITAL ROTATIONS.
 SOLVING FOR   21 NUCLEAR RESPONSES AND 0 ELECTRIC FIELD RESPONSES
           -FA- WILL USE     18706 WORDS,
           -TA- WILL USE     27917 WORDS,
          -FCK- WILL USE    117150 WORDS,
 -WXY- AND -YA- WILL USE     93024 WORDS,
               THERE ARE    998196 WORDS OF REPLICATED MEMORY AVAILABLE.
        TIME FOR -FA-   =        0.000
        TIME FOR -TA-   =        0.000
        TIME FOR -FCK-  =        0.010
 PRECONDITIONED CONJUGATE GRADIENT SOLVER     CONV. TOLERANCE=5.00E-05
             MAXIMUM          RESPONSES        NONZERO     BLOCKS
 ITER    RESPONSE ERROR        IMPROVED   AO INTEGRALS    SKIPPED
   1       6.19001E-01            21             35478        214
   2       2.80036E-01            21             35423        224
   3       1.74326E-01            21             35389        231
   4       7.71744E-02            21             35334        232
   5       2.06862E-02            21             35257        246
   6       7.96451E-03            21             35155        261
   7       2.80548E-03            21             34983        292
   8       9.68658E-04            21             34476        337
   9       3.10313E-04            21             33852        384
  10       6.93180E-05            21             32986        473
  11       1.15525E-05             7             31719        579
 THE CPHF HAS CONVERGED AFTER 11 ITERATIONS.
 IT REQUIRED   434 FOCK-LIKE BUILDS TO FIND THE  21 SYMMETRY UNIQUE RESPONSES.
        TIME FOR -YA-   =        0.120
 ...... DONE WITH CPHF CONTRIBUTIONS ......
 STEP CPU TIME =     0.15 TOTAL CPU TIME =          0.9 (      0.0 MIN)
 TOTAL WALL CLOCK TIME=          0.9 SECONDS, CPU UTILIZATION IS    96.77%

          PARAMETERS CONTROLLING GEOMETRY SEARCH ARE
          METHOD =QA                  UPHESS =BFGS    
          NNEG   =         0          NFRZ   =         0
          NSTEP  =        50          IFOLOW =         1
          HESS   =CALC                RESTAR =         F
          IHREP  =         5          HSSEND =         T
          NPRT   =         0          NPUN   =         0
          OPTTOL = 5.000E-04          RMIN   = 1.500E-03
          RMAX   = 1.000E-01          RLIM   = 7.000E-02
          DXMAX  = 3.000E-01          PURIFY =         F
          MOVIE  =         F          TRUPD  =         T
          TRMAX  = 5.000E-01          TRMIN  = 5.000E-02
          ITBMAT =         5          STPT   =         F
          STSTEP = 1.000E-02          PROJCT=          T

 THE GRADIENT AT THE INITIAL GEOMETRY IS KNOWN.
 PROCEEDING DIRECTLY TO THE GEOMETRY SEARCH...

          NSERCH=  0     ENERGY=    -547.6300749

                                 -----------------------
                                 GRADIENT (HARTREE/BOHR)
                                 -----------------------
        ATOM     ZNUC       DE/DX         DE/DY         DE/DZ
 --------------------------------------------------------------
    1  N            7.0     0.0932140    -0.0111900     0.0352171
    2  C            6.0     0.0233249     0.1515281     0.1483724
    3  CL          17.0    -0.1370481    -0.1639481    -0.1791949
    4  H            1.0     0.0069905     0.0069262     0.0102099
    5  H            1.0     0.0011760     0.0112699     0.0018749
    6  H            1.0     0.0042416     0.0003393    -0.0117560
    7  H            1.0     0.0081012     0.0050748    -0.0047235


                     --------------------
                     INTERNAL COORDINATES
                     --------------------

                 - - ATOMS - -         COORDINATE        GRADIENT
 NO.   TYPE    I  J  K  L  M  N         (ANG,DEG)     (H/B,H/RAD)
 ----------------------------------------------------------------
   1 STRETCH   2  3                     1.5000000       0.0000000
   2 SYM.CRD.                           0.5952637      -0.0096270
   3 SYM.CRD.                           2.0362863      -0.0392587
   4 SYM.CRD.                           0.9509483      -0.0189952
   5 SYM.CRD.                          -0.0920695      -0.0050532
   6 SYM.CRD.                           1.1596753       0.0016732
   7 SYM.CRD.                           0.6445289       0.0126275
   8 SYM.CRD.                           0.1277424       0.0024490
   9 SYM.CRD.                           1.0725150      -0.0214660
  10 SYM.CRD.                          -1.4394968      -0.0037724
  11 SYM.CRD.                           0.5247155      -0.0114883
  12 SYM.CRD.                          -0.1279848       0.0309793
  13 SYM.CRD.                          -0.3174406      -0.0379776
  14 SYM.CRD.                          -0.4596678      -0.0132002
  15 SYM.CRD.                           1.1484798      -0.0362190

 NOTE: CARTESIAN GRADIENTS ARE ALWAYS TAKEN TO TEST CONVERGENCE,
       SO THE FOLLOWING GRADIENTS ARE CARTESIAN.

          MAXIMUM GRADIENT = 0.1116668    RMS GRADIENT = 0.0340732

 NSERCH:   0  E=     -547.6300748562  GRAD. MAX=  0.1116668  R.M.S.=  0.0340732

          FORCE CONSTANT MATRIX NOT UPDATED --- TAKING FIRST STEP
 LOCAL CURVATURE   1 OF THE APPROXIMATE HESSIAN HAS EIGENVALUE=   -0.148330
 *** THIS MODE HAS AN INCORRECT CURVATURE ***
 THE COMPONENTS OF THIS MODE FOLLOWS:
       -0.016490       0.022973      -0.086891      -0.048895      -0.019015
        0.545233      -0.253741       0.137697       0.019519      -0.499706
        0.108649       0.195534      -0.291090      -0.472216       0.020656
          TRIM/QA LAMBDA FOR NON-TS MODES =  -0.24256854
          TRIM/QA STEP HAS LENGTH         =   0.300000
          RADIUS OF STEP TAKEN=   0.30000  CURRENT TRUST RADIUS=   0.30000
          TRANSFORMING DISPLACEMENT FROM INTERNALS TO CARTESIANS
          THE ROOT MEAN SQUARE ERROR IN ITERATION   1 IS   0.00344086
          THE ROOT MEAN SQUARE ERROR IN ITERATION   2 IS   0.00000536
          THE ROOT MEAN SQUARE ERROR IN ITERATION   3 IS   0.00000000

 BEGINNING GEOMETRY SEARCH POINT NSERCH=   1 ...

 COORDINATES OF ALL ATOMS ARE (ANGS)
   ATOM   CHARGE       X              Y              Z
 ------------------------------------------------------------
 N           7.0  -7.2315901939   2.7131398977  -0.1581419370
 C           6.0  -5.8742522322   2.8457533444  -0.1770302518
 CL         17.0  -5.1584633559   3.7257106591   0.8044591312
 H           1.0  -5.3124080064   2.3035380437  -0.9331994734
 H           1.0  -7.7721893437   3.0806644015   0.6602400565
 H           1.0  -7.6619364430   1.9604148416  -0.7430077753
 H           1.0  -7.7575135345   3.7778837765  -1.0448786340


                     --------------------
                     INTERNAL COORDINATES
                     --------------------

                 - - ATOMS - -         COORDINATE      COORDINATE
 NO.   TYPE    I  J  K  L  M  N        (BOHR,RAD)       (ANG,DEG)
 ----------------------------------------------------------------
   1 STRETCH   2  3                     2.8345890       1.5000000
   2 STRETCH   1  5                     1.9793207       1.0474115
   3 STRETCH   1  2                     2.5774570       1.3639316
   4 STRETCH   1  2                     2.5774570       1.3639316
   5 STRETCH   1  6                     1.9764230       1.0458781
   6 STRETCH   1  7                     2.8007351       1.4820853
   7 STRETCH   2  4                     2.0540359       1.0869491
   8 STRETCH   2  3                     2.8345890       1.5000000
   9 BEND      1  2  3                  2.1210019     121.5244547
  10 BEND      1  2  4                  2.0663670     118.3941053
  11 BEND      1  2  3                  2.1210019     121.5244547
  12 BEND      1  2  4                  2.0663670     118.3941053
  13 BEND      1  2  3                  2.1210019     121.5244547
  14 BEND      1  2  3                  2.1210019     121.5244547
  15 BEND      2  1  5                  2.0832732     119.3627637
  16 BEND      2  1  7                  1.8493886     105.9621637
  17 BEND      2  1  7                  1.8493886     105.9621637
  18 BEND      2  1  6                  2.0620273     118.1454634
  19 BEND      2  1  6                  2.0620273     118.1454634
  20 BEND      2  1  5                  2.0832732     119.3627637
  21 BEND      3  2  4                  2.0957588     120.0781331
  22 BEND      3  2  4                  2.0957588     120.0781331
  23 BEND      5  1  6                  2.0681458     118.4960234
  24 BEND      5  1  7                  1.6030473      91.8478427
  25 BEND      6  1  7                  1.6072595      92.0891832
  26 TORSION   3  2  1  7               1.5654084      89.6912928
  27 TORSION   3  2  1  5              -0.2061412     -11.8110183
  28 TORSION   3  2  1  6              -2.9496832    -169.0043987
  29 TORSION   4  2  1  7              -1.5646426     -89.6474178
  30 TORSION   4  2  1  6               0.2034511      11.6568907
  31 TORSION   4  2  1  5               2.9469932     168.8502710

          INTERNUCLEAR DISTANCES (ANGS.)
          ------------------------------

                1 N          2 C          3 CL         4 H          5 H     

   1 N       0.0000000    1.3639316 *  2.4999510 *  2.1099166 *  1.0474115 *
   2 C       1.3639316 *  0.0000000    1.5000000 *  1.0869491 *  2.0876710 *
   3 CL      2.4999510 *  1.5000000 *  0.0000000    2.2507180 *  2.6960058 *
   4 H       2.1099166 *  1.0869491 *  2.2507180 *  0.0000000    3.0320784  
   5 H       1.0474115 *  2.0876710 *  2.6960058 *  3.0320784    0.0000000  
   6 H       1.0458781 *  2.0736368 *  3.4319529    2.3820559 *  1.7989495 *
   7 H       1.4820853 *  2.2734778 *  3.1902718    2.8573954 *  1.8422161 *

                6 H          7 H     

   1 N       1.0458781 *  1.4820853 *
   2 C       2.0736368 *  2.2734778 *
   3 CL      3.4319529    3.1902718  
   4 H       2.3820559 *  2.8573954 *
   5 H       1.7989495 *  1.8422161 *
   6 H       0.0000000    1.8448453 *
   7 H       1.8448453 *  0.0000000  

  * ... LESS THAN  3.000

 ...... END OF ONE-ELECTRON INTEGRALS ......
 STEP CPU TIME =     0.02 TOTAL CPU TIME =          0.9 (      0.0 MIN)
 TOTAL WALL CLOCK TIME=          0.9 SECONDS, CPU UTILIZATION IS    96.84%
  ...... END OF TWO-ELECTRON INTEGRALS .....
 STEP CPU TIME =     0.01 TOTAL CPU TIME =          0.9 (      0.0 MIN)
 TOTAL WALL CLOCK TIME=          1.0 SECONDS, CPU UTILIZATION IS    96.88%

          ---------------------------
                  UHF SCF CALCULATION
          ---------------------------
     DENSITY MATRIX CONV=  1.00E-04

 DIRECT SCF CALCULATION, SCHWRZ=T   FDIFF=T

                                                                                NONZERO     BLOCKS
 ITER EX      TOTAL ENERGY        E CHANGE  DENSITY CHANGE    ORB. GRAD       INTEGRALS    SKIPPED
          ---------------START SECOND ORDER SCF---------------
   1  0     -547.6401195522  -547.6401195522   0.069777768   0.027878950          35521        207
   2  1     -547.6456433095    -0.0055237574   0.144914169   0.019658986          35367        239
   3  2     -547.6501156288    -0.0044723192   0.014885947   0.005190108          35377        235
   4  3     -547.6503790047    -0.0002633760   0.010939107   0.002158210          35244        251
   5  4     -547.6504507410    -0.0000717362   0.001456885   0.000519908          35190        260
   6  5     -547.6504541144    -0.0000033734   0.001469454   0.000271350          34916        306
   7  6     -547.6504552093    -0.0000010949   0.000280317   0.000077647          34796        313
   8  7     -547.6504552797    -0.0000000704   0.000103330   0.000032259          34112        379
   9  8     -547.6504552936    -0.0000000138   0.000034221   0.000010228          33807        405
  10  9     -547.6504552950    -0.0000000014   0.000032579   0.000006510          33212        460

          -----------------
          DENSITY CONVERGED
          -----------------
     TIME TO FORM FOCK OPERATORS=       0.1 SECONDS (       0.0 SEC/ITER)
     FOCK TIME ON FIRST ITERATION=       0.0, LAST ITERATION=       0.0
     TIME TO SOLVE SCF EQUATIONS=       0.0 SECONDS (       0.0 SEC/ITER)

 FINAL UHF ENERGY IS     -547.6504552950 AFTER  10 ITERATIONS

          --------------------
          SPIN SZ   =    0.500
          S-SQUARED =    0.952
          --------------------
 ...... END OF UHF CALCULATION ......
 STEP CPU TIME =     0.15 TOTAL CPU TIME =          1.1 (      0.0 MIN)
 TOTAL WALL CLOCK TIME=          1.1 SECONDS, CPU UTILIZATION IS    96.43%
 ..... END OF 1-ELECTRON GRADIENT ......
 STEP CPU TIME =     0.01 TOTAL CPU TIME =          1.1 (      0.0 MIN)
 TOTAL WALL CLOCK TIME=          1.1 SECONDS, CPU UTILIZATION IS    96.46%
 ...... END OF 2-ELECTRON GRADIENT ......
 STEP CPU TIME =     0.02 TOTAL CPU TIME =          1.1 (      0.0 MIN)
 TOTAL WALL CLOCK TIME=          1.1 SECONDS, CPU UTILIZATION IS    96.52%

          NSERCH=  1     ENERGY=    -547.6504553

                                 -----------------------
                                 GRADIENT (HARTREE/BOHR)
                                 -----------------------
        ATOM     ZNUC       DE/DX         DE/DY         DE/DZ
 --------------------------------------------------------------
    1  N            7.0     0.0880968    -0.0709814     0.0746031
    2  C            6.0     0.0534777     0.1633391     0.1597275
    3  CL          17.0    -0.1317767    -0.1658132    -0.1828964
    4  H            1.0     0.0093765     0.0045061     0.0061700
    5  H            1.0    -0.0019982     0.0166925    -0.0065784
    6  H            1.0    -0.0001134     0.0094953    -0.0150141
    7  H            1.0    -0.0170627     0.0427616    -0.0360117


                     --------------------
                     INTERNAL COORDINATES
                     --------------------

                 - - ATOMS - -         COORDINATE        GRADIENT
 NO.   TYPE    I  J  K  L  M  N         (ANG,DEG)     (H/B,H/RAD)
 ----------------------------------------------------------------
   1 STRETCH   2  3                     1.5000000       0.0000000
   2 SYM.CRD.                           0.6059877      -0.0063010
   3 SYM.CRD.                           2.0755204      -0.0225492
   4 SYM.CRD.                           0.9709167      -0.0125393
   5 SYM.CRD.                          -0.0823996      -0.0048256
   6 SYM.CRD.                           1.0971081       0.0332729
   7 SYM.CRD.                           0.6608795      -0.0080149
   8 SYM.CRD.                           0.1092535       0.0103913
   9 SYM.CRD.                           1.0974916      -0.0123360
  10 SYM.CRD.                          -1.3744895      -0.0331828
  11 SYM.CRD.                           0.5301827       0.0006673
  12 SYM.CRD.                          -0.1774305       0.0287815
  13 SYM.CRD.                          -0.2540198      -0.0340092
  14 SYM.CRD.                          -0.3816889      -0.0365146
  15 SYM.CRD.                           1.1817141      -0.0118656

 NOTE: CARTESIAN GRADIENTS ARE ALWAYS TAKEN TO TEST CONVERGENCE,
       SO THE FOLLOWING GRADIENTS ARE CARTESIAN.

          MAXIMUM GRADIENT = 0.0880967    RMS GRADIENT = 0.0374997

 NSERCH:   1  E=     -547.6504552950  GRAD. MAX=  0.0880967  R.M.S.=  0.0374997

          HESSIAN UPDATED USING THE BFGS FORMULA
          WARNING! HEREDITARY POSITIVE DEFINITENESS ENDANGERED
 LOCAL CURVATURE   1 OF THE APPROXIMATE HESSIAN HAS EIGENVALUE=   -0.156527
 *** THIS MODE HAS AN INCORRECT CURVATURE ***
 THE COMPONENTS OF THIS MODE FOLLOWS:
       -0.011496      -0.027893      -0.175387      -0.126164      -0.038257
        0.521399      -0.221041       0.156874      -0.016412      -0.477251
        0.134579       0.293803      -0.342244      -0.389219       0.067313
             ACTUAL ENERGY CHANGE WAS  -0.0203804388
          PREDICTED ENERGY CHANGE WAS  -0.0194503307 RATIO=  1.048
          TRIM/QA LAMBDA FOR NON-TS MODES =  -0.31010995
          TRIM/QA STEP HAS LENGTH         =   0.500000
          RADIUS OF STEP TAKEN=   0.49998  CURRENT TRUST RADIUS=   0.50000
          TRANSFORMING DISPLACEMENT FROM INTERNALS TO CARTESIANS
          THE ROOT MEAN SQUARE ERROR IN ITERATION   1 IS   0.00329410
          THE ROOT MEAN SQUARE ERROR IN ITERATION   2 IS   0.00000327
          THE ROOT MEAN SQUARE ERROR IN ITERATION   3 IS   0.00000000

 BEGINNING GEOMETRY SEARCH POINT NSERCH=   2 ...

 COORDINATES OF ALL ATOMS ARE (ANGS)
   ATOM   CHARGE       X              Y              Z
 ------------------------------------------------------------
 N           7.0  -7.2832229925   2.7158569652  -0.1815752880
 C           6.0  -5.8490859531   2.8492088199  -0.1780278839
 CL         17.0  -5.1453792765   3.7307899710   0.8107145432
 H           1.0  -5.2982115572   2.2932379767  -0.9309287386
 H           1.0  -7.8178430555   3.0410267592   0.6577908319
 H           1.0  -7.6925461276   1.9232278692  -0.7269367682
 H           1.0  -7.7316759607   3.6098741950  -0.9403475906


                     --------------------
                     INTERNAL COORDINATES
                     --------------------

                 - - ATOMS - -         COORDINATE      COORDINATE
 NO.   TYPE    I  J  K  L  M  N        (BOHR,RAD)       (ANG,DEG)
 ----------------------------------------------------------------
   1 STRETCH   2  3                     2.8345890       1.5000000
   2 STRETCH   1  5                     1.9784353       1.0469429
   3 STRETCH   1  2                     2.7218250       1.4403279
   4 STRETCH   1  2                     2.7218250       1.4403279
   5 STRETCH   1  6                     1.9758488       1.0455742
   6 STRETCH   1  7                     2.3724246       1.2554331
   7 STRETCH   2  4                     2.0522684       1.0860138
   8 STRETCH   2  3                     2.8345890       1.5000000
   9 BEND      1  2  3                  2.1213493     121.5443605
  10 BEND      1  2  4                  2.0442461     117.1266749
  11 BEND      1  2  3                  2.1213493     121.5443605
  12 BEND      1  2  4                  2.0442461     117.1266749
  13 BEND      1  2  3                  2.1213493     121.5443605
  14 BEND      1  2  3                  2.1213493     121.5443605
  15 BEND      2  1  5                  2.0688579     118.5368248
  16 BEND      2  1  7                  1.8663107     106.9317236
  17 BEND      2  1  7                  1.8663107     106.9317236
  18 BEND      2  1  6                  2.0502224     117.4690891
  19 BEND      2  1  6                  2.0502224     117.4690891
  20 BEND      2  1  5                  2.0688579     118.5368248
  21 BEND      3  2  4                  2.1175134     121.3245812
  22 BEND      3  2  4                  2.1175134     121.3245812
  23 BEND      5  1  6                  2.0417287     116.9824346
  24 BEND      5  1  7                  1.6518582      94.6445042
  25 BEND      6  1  7                  1.6556556      94.8620761
  26 TORSION   3  2  1  7               1.5647672      89.6545561
  27 TORSION   3  2  1  5              -0.2710110     -15.5277887
  28 TORSION   3  2  1  6              -2.8865437    -165.3867725
  29 TORSION   4  2  1  7              -1.5636983     -89.5933123
  30 TORSION   4  2  1  6               0.2681761      15.3653592
  31 TORSION   4  2  1  5               2.8837088     165.2243430

          INTERNUCLEAR DISTANCES (ANGS.)
          ------------------------------

                1 N          2 C          3 CL         4 H          5 H     

   1 N       0.0000000    1.4403279 *  2.5661457 *  2.1634250 *  1.0469429 *
   2 C       1.4403279 *  0.0000000    1.5000000 *  1.0860138 *  2.1474151 *
   3 CL      2.5661457 *  1.5000000 *  0.0000000    2.2634564 *  2.7642760 *
   4 H       2.1634250 *  1.0860138 *  2.2634564 *  0.0000000    3.0711172  
   5 H       1.0469429 *  2.1474151 *  2.7642760 *  3.0711172    0.0000000  
   6 H       1.0455742 *  2.1347335 *  3.4813376    2.4313285 *  1.7839967 *
   7 H       1.2554331 *  2.1688449 *  3.1256631    2.7668337 *  1.6985460 *

                6 H          7 H     

   1 N       1.0455742 *  1.2554331 *
   2 C       2.1347335 *  2.1688449 *
   3 CL      3.4813376    3.1256631  
   4 H       2.4313285 *  2.7668337 *
   5 H       1.7839967 *  1.6985460 *
   6 H       0.0000000    1.7005444 *
   7 H       1.7005444 *  0.0000000  

  * ... LESS THAN  3.000

 ...... END OF ONE-ELECTRON INTEGRALS ......
 STEP CPU TIME =     0.02 TOTAL CPU TIME =          1.1 (      0.0 MIN)
 TOTAL WALL CLOCK TIME=          1.2 SECONDS, CPU UTILIZATION IS    96.58%
  ...... END OF TWO-ELECTRON INTEGRALS .....
 STEP CPU TIME =     0.02 TOTAL CPU TIME =          1.1 (      0.0 MIN)
 TOTAL WALL CLOCK TIME=          1.2 SECONDS, CPU UTILIZATION IS    97.46%

          ---------------------------
                  UHF SCF CALCULATION
          ---------------------------
     DENSITY MATRIX CONV=  4.00E-04

 DIRECT SCF CALCULATION, SCHWRZ=T   FDIFF=T

                                                                                NONZERO     BLOCKS
 ITER EX      TOTAL ENERGY        E CHANGE  DENSITY CHANGE    ORB. GRAD       INTEGRALS    SKIPPED
          ---------------START SECOND ORDER SCF---------------
   1  0     -547.6796520514  -547.6796520514   0.155610440   0.050650561          35470        208
   2  1     -547.6966676419    -0.0170155905   0.209354831   0.024779884          35327        243
   3  2     -547.7056257431    -0.0089581012   0.049563693   0.015120990          35349        239
[...]
          DIPOLE DERIVATIVE TENSOR          (DEBYE/ANGSTROM)
          ------------------------          ----------------

        ATOM                 MU-X           MU-Y           MU-Z
     N          D/DX    -4.437073539   -0.571811906   -0.291259023
                D/DY     0.179505439   -2.165277720   -0.457285490
                D/DZ    -0.205552558   -0.534058256   -2.527994330
     C          D/DX     4.519770031    1.582185112    1.256354681
                D/DY     1.182301701    0.762914032    1.720545412
                D/DZ     1.394800831    1.822746110    1.114258640
     CL         D/DX    -3.563671023   -0.526678224   -0.325355784
                D/DY    -1.059408814   -3.494227414   -1.250295416
                D/DZ    -0.884756252   -1.240122839   -3.470395145
     H          D/DX    -0.042566899   -0.425696199   -0.544392667
                D/DY    -0.302090645    0.620087806    0.024435323
                D/DZ    -0.278150467   -0.025200051    0.638603296
     H          D/DX     1.219998753    0.043885487   -0.095273373
                D/DY    -0.031303201    1.266521686   -0.014386370
                D/DZ    -0.364233299   -0.054162308    1.485163641
     H          D/DX     1.236871642    0.054699169   -0.048973940
                D/DY     0.317202628    1.662994987    0.178211931
                D/DZ     0.130560529    0.139223397    1.357925407
     H          D/DX     1.066664002   -0.156587645    0.048886018
                D/DY    -0.286203829    1.346958327   -0.201257332
                D/DZ     0.207317817   -0.108432280    1.402429779

          --------------------------------------------------------
          NORMAL COORDINATE ANALYSIS IN THE HARMONIC APPROXIMATION
          --------------------------------------------------------

     *******************************************************
     * THIS IS NOT A STATIONARY POINT ON THE MOLECULAR PES *
     *     THE VIBRATIONAL ANALYSIS IS NOT VALID !!!       *
     *******************************************************

          ATOMIC WEIGHTS (AMU)

    1     N                14.00307
    2     C                12.00000
    3     CL               34.96885
    4     H                 1.00782
    5     H                 1.00782
    6     H                 1.00782
    7     H                 1.00782

 * * * WARNING, MODE 7 HAS BEEN CHOSEN AS A VIBRATION
          WHILE MODE 1 IS ASSUMED TO BE A TRANSLATION/ROTATION.
 PLEASE VERIFY THE PROGRAM'S DECISION MANUALLY!


 MODES    1 TO    6 ARE TAKEN AS ROTATIONS AND TRANSLATIONS.

 ANALYZING SYMMETRY OF NORMAL MODES...

     FREQUENCIES IN CM**-1, IR INTENSITIES IN DEBYE**2/AMU-ANGSTROM**2,
     REDUCED MASSES IN AMU.

     *******************************************************
     * THIS IS NOT A STATIONARY POINT ON THE MOLECULAR PES *
     *     THE VIBRATIONAL ANALYSIS IS NOT VALID !!!       *
     *******************************************************

                            1           2           3           4           5
       FREQUENCY:       484.65      325.38       11.70        0.02        0.04  
        SYMMETRY:         A           A           A           A           A   
    REDUCED MASS:      6.89707     6.84776     2.89170     9.29523     9.30099
    IR INTENSITY:      0.01301     0.57069     0.58377     0.00000     0.00000

  1   N            X -0.00404058 -0.09526509  0.00219398 -0.02041318  0.02949033
                   Y  0.01651216  0.06698573  0.13230076  0.11816582 -0.02539830
                   Z -0.01696046  0.06876174 -0.13167317  0.03106928  0.11753413
  2   C            X -0.01345150 -0.12298174 -0.00157312 -0.02040692  0.02948486
                   Y  0.16626382  0.02693458 -0.04650303  0.11846671 -0.02566004
                   Z -0.15031653  0.03621401  0.04746270  0.03076730  0.11779562
  3   CL           X  0.00710784  0.09349163 -0.00157786 -0.02040697  0.02948519
                   Y -0.06843265 -0.03932014 -0.04652273  0.11846639 -0.02565990
                   Z  0.06220361 -0.04766002  0.04745949  0.03076764  0.11779526
  4   H            X -0.01673843 -0.17175508  0.06650701 -0.02052106  0.02958370
                   Y  0.20529274 -0.09272136 -0.17707887  0.11868528 -0.02584890
                   Z -0.16062336  0.06047825  0.12934402  0.03063021  0.11791419
  5   H            X  0.05544890 -0.09220419 -0.09818678 -0.02024332  0.02934381
                   Y -0.01669822  0.08563408  0.26319690  0.11793338 -0.02520842
                   Z  0.01390293  0.06822453 -0.19135668  0.03117151  0.11744714
  6   H            X  0.03900825 -0.10205762 -0.06114568 -0.02030642  0.02939744
                   Y -0.00807875  0.06181716  0.13799057  0.11816097 -0.02538925
                   Z  0.00324931  0.08498590 -0.09337557  0.03099376  0.11758865
  7   H            X -0.10805816 -0.08993396  0.16600583 -0.02069007  0.02972990
                   Y -0.01520262  0.05815087  0.12877643  0.11817921 -0.02540231
                   Z  0.01062482  0.05337876 -0.24177055  0.03126463  0.11737453

 TRANS. SAYVETZ    X -0.00002240 -0.00000842  0.03042196 -1.32673906  1.91681529
                   Y -0.00001748  0.00000494  0.02338043  7.69557795 -1.66351760
                   Z  0.00000600 -0.00001528 -0.01493887  2.00521285  7.65255577
               TOTAL  0.00002904  0.00001813  0.04117414  8.06244598  8.06244885

   ROT. SAYVETZ    X  8.77059653 -0.72219901  5.56941027 -0.00929683  0.00814211
                   Y -2.46030550 12.00214917 -9.97505528  0.01679886 -0.01453128
                   Z -3.56546672-11.33743040 -9.58614703  0.01612060 -0.01403483
               TOTAL  9.78207644 16.52605471 14.91356006  0.02507003  0.02178138

                            6           7           8           9          10
       FREQUENCY:         0.09      112.14      339.73      513.33      969.79  
        SYMMETRY:         A           A           A           A           A   
    REDUCED MASS:      9.30871     1.03197     2.59545     1.19370     3.27292
    IR INTENSITY:      0.00001     0.03068     0.61478     0.59677     0.19534

  1   N            X  0.11872495  0.00064550  0.04122572 -0.04282823  0.16028413
                   Y  0.02609984 -0.03182881  0.10911918 -0.01166959  0.02402921
                   Z -0.02333041  0.01160789  0.10362322 -0.03822905  0.03011521
  2   C            X  0.11874230 -0.00122608  0.06746501  0.00159534 -0.13647143
                   Y  0.02692081  0.01755804 -0.08253272 -0.05839586  0.04271543
                   Z -0.02415370 -0.00795364 -0.05800518  0.06666518  0.05709030
  3   CL           X  0.11874236  0.00008928 -0.04191921  0.02468322 -0.03003070
                   Y  0.02692031  0.01085583 -0.03584019  0.00313623 -0.02516952
                   Z -0.02415307 -0.00330565 -0.02979277  0.01047364 -0.02776122
  4   H            X  0.11842948 -0.00244858 -0.03479873 -0.16837358 -0.14552677
                   Y  0.02752151 -0.00640620  0.17242656  0.78597879  0.12456951
                   Z -0.02453021  0.00151851 -0.20914386 -0.35422865  0.03603833
  5   H            X  0.11918691 -0.00814428  0.20817441 -0.16188512 -0.01936807
                   Y  0.02549170  0.51524792  0.23395315 -0.00134556 -0.04224683
                   Z -0.02305510 -0.05333934  0.16427266 -0.09488947 -0.04393281
  6   H            X  0.11901604  0.00925940 -0.18116977  0.00468977  0.39650950
                   Y  0.02607625 -0.26246086  0.14837978 -0.01438554 -0.01880204
                   Z -0.02351234  0.53634718  0.19531151 -0.07222441 -0.05422697
  7   H            X  0.11797143  0.00393599  0.08616840  0.04519403  0.20827050
                   Y  0.02612008 -0.38969231  0.15536855 -0.02159357 -0.03267985
                   Z -0.02281894 -0.43636569  0.13416016 -0.10467682 -0.07283465

 TRANS. SAYVETZ    X  7.71802288  0.00007085 -0.00001222 -0.00000763  0.00000093
                   Y  1.73593273  0.00017847  0.00000526  0.00002244  0.00000076
                   Z -1.55579835  0.00004522 -0.00001039 -0.00000870 -0.00000106
               TOTAL  8.06237236  0.00019727  0.00001688  0.00002525  0.00000160

   ROT. SAYVETZ    X -0.02550694 -4.14478466  0.74872215  2.04710207  0.07743154
                   Y  0.04582189  0.68623970  5.15774885 -1.08732799 -0.80994539
                   Z  0.04399010  2.18546485 -5.61326671 -0.34710789  0.74531255
               TOTAL  0.06844983  4.73565427  7.65974682  2.34379882  1.10340291

                           11          12          13          14          15
       FREQUENCY:      1134.93     1188.48     1456.75     1731.07     1797.48  
        SYMMETRY:         A           A           A           A           A   
    REDUCED MASS:      1.22046     1.43726     1.18399     1.24355     3.72079
    IR INTENSITY:      0.65586     1.00207     0.03329     2.76267     5.39888

  1   N            X  0.00120532  0.04507491 -0.02981034 -0.10617240 -0.03857953
                   Y -0.08396608 -0.06256437  0.00479641  0.00003914 -0.02323161
                   Z  0.05599837 -0.08030226  0.03580968  0.00231087 -0.03609149
  2   C            X -0.00317554 -0.10295171  0.01606144 -0.02237297  0.12753671
                   Y  0.04323206  0.01057178  0.04955613 -0.03396392  0.12897211
                   Z -0.04157060  0.03430539  0.03810127 -0.03655575  0.13240625
  3   CL           X  0.00289640  0.01040220 -0.01356104  0.00779202 -0.02714982
                   Y  0.00670873  0.00787306 -0.02864773  0.01082372 -0.03979701
                   Z  0.00331296  0.00610894 -0.03447896  0.01097315 -0.03938830
  4   H            X -0.08720337  0.11915552  0.78905497  0.08610929 -0.30742941
                   Y -0.07041230  0.16090342  0.30914227 -0.00614625 -0.02076409
                   Z -0.03278699  0.08693824  0.30407848 -0.00921336  0.04281939
  5   H            X -0.31382112  0.55227518 -0.14723101  0.43260798  0.12331125
                   Y  0.19644543  0.14503753  0.01391618  0.03314041  0.11687650
                   Z -0.11362905  0.12090322 -0.01000209  0.23819043  0.01260927
  6   H            X -0.34283047 -0.46737688  0.00807939  0.49761190  0.07043417
                   Y  0.13851292  0.02449991  0.01597378 -0.17206919 -0.10847835
                   Z -0.18962477  0.11315576 -0.02732003 -0.07579492  0.08051865
  7   H            X  0.66442747  0.03455917  0.04358366  0.45489551  0.07319113
                   Y  0.15457983  0.13979904 -0.00173244  0.17337929  0.18035567
                   Z -0.06199877  0.17431695 -0.02164583 -0.13076631  0.15565119

 TRANS. SAYVETZ    X  0.00000636 -0.00000019  0.00000047 -0.00000027  0.00000090
                   Y  0.00000413 -0.00000041 -0.00000083 -0.00000013  0.00000011
                   Z -0.00000199 -0.00000069 -0.00000051  0.00000004  0.00000000
               TOTAL  0.00000784  0.00000083  0.00000107  0.00000030  0.00000091

   ROT. SAYVETZ    X -0.29045061  0.08168820 -0.01526956 -0.00327546  0.00103018
                   Y  0.08792945 -0.43441989 -0.04200651  0.00395562  0.05309024
                   Z  0.11086654  0.37285269  0.05334128 -0.00118851 -0.05350478
               TOTAL  0.32308596  0.57828430  0.06959166  0.00527144  0.07538167

                           16          17          18          19          20
       FREQUENCY:      1868.89     1877.83     3695.35     3802.37     3968.46  
        SYMMETRY:         A           A           A           A           A   
    REDUCED MASS:      1.04637     1.09379     1.10329     1.03386     1.09586
    IR INTENSITY:      1.37486     0.59401     0.51438     2.12426     3.65420

  1   N            X  0.00087963  0.01039365 -0.00064092  0.04342297 -0.00421039
                   Y -0.04383949 -0.02354520  0.00123471 -0.00449068 -0.05750581
                   Z  0.02908026 -0.03483023  0.00143683  0.00497681  0.05345286
  2   C            X -0.00069837 -0.03212521  0.02816879  0.00074483  0.00013357
                   Y -0.00833100 -0.03752699 -0.03641465  0.00127032  0.00042421
                   Z  0.00177335 -0.04129481 -0.07548540  0.00240888 -0.00034940
  3   CL           X  0.00061679  0.00686096  0.00183695 -0.00032641  0.00005190
                   Y  0.00069311  0.01018091  0.00273138 -0.00023311  0.00001434
                   Z  0.00091977  0.01019994  0.00227278 -0.00022743  0.00003073
  4   H            X -0.00284520  0.09231217 -0.37021002  0.00007720  0.00421969
                   Y  0.00004947  0.00359468  0.32341384 -0.00819007 -0.00037087
                   Z -0.00291369 -0.01947641  0.81009163 -0.02025164 -0.00244444
  5   H            X  0.09866731 -0.31484835 -0.01160849 -0.21761072  0.20271952
                   Y  0.65161646  0.26407967 -0.00012416  0.05245113 -0.05103401
                   Z -0.00276779 -0.20853679  0.00355730  0.49412050 -0.45830765
  6   H            X  0.18908428  0.25464521  0.00025658 -0.15222666  0.11037101
                   Y  0.15195732 -0.25847718 -0.01333913 -0.45220296  0.32241390
                   Z -0.57732117  0.31613405 -0.00448389 -0.19271282  0.13973436
  7   H            X -0.31021451 -0.03207012 -0.00867112 -0.23111667 -0.26220072
                   Y -0.11935598  0.41152460  0.01170516  0.46329951  0.52244814
                   Z  0.12592310  0.53360171 -0.00919673 -0.37109662 -0.41858101

 TRANS. SAYVETZ    X -0.00000048 -0.00000031 -0.00000003  0.00000001  0.00000007
                   Y -0.00000041 -0.00000014 -0.00000012 -0.00000008  0.00000013
                   Z  0.00000023 -0.00000009 -0.00000004 -0.00000009 -0.00000003
               TOTAL  0.00000067  0.00000035  0.00000013  0.00000012  0.00000015

   ROT. SAYVETZ    X  0.01299353 -0.00403564 -0.01295604  0.00034584 -0.00025161
                   Y -0.00254928 -0.00474213  0.02699225 -0.00028977  0.00011090
                   Z -0.00635360  0.00769566 -0.01799993 -0.00001333  0.00004888
               TOTAL  0.01468669  0.00989936  0.03493477  0.00045138  0.00027928

                           21
       FREQUENCY:      3990.34  
        SYMMETRY:         A   
    REDUCED MASS:      1.09747
    IR INTENSITY:      3.93690

  1   N            X  0.00371468
                   Y -0.05379953
                   Z -0.05811272
  2   C            X  0.00009763
                   Y  0.00029448
                   Z  0.00026513
  3   CL           X  0.00014055
                   Y  0.00002901
                   Z  0.00006044
  4   H            X -0.00503261
                   Y  0.00319113
                   Z  0.00409953
  5   H            X -0.24613967
                   Y  0.06228961
                   Z  0.55899645
  6   H            X  0.21540339
                   Y  0.63452672
                   Z  0.27442752
  7   H            X -0.02188353
                   Y  0.04298898
                   Z -0.03533922

 TRANS. SAYVETZ    X  0.00000001
                   Y  0.00000007
                   Z  0.00000005
               TOTAL  0.00000009

   ROT. SAYVETZ    X -0.00008469
                   Y -0.00005612
                   Z  0.00004017
               TOTAL  0.00010925

 REFERENCE ON SAYVETZ CONDITIONS - A. SAYVETZ, J.CHEM.PHYS., 7, 383-389(1939).

 NOTE - THE MODES J,K ARE ORTHONORMALIZED ACCORDING TO
 SUM ON I   M(I) * (X(I,J)*X(I,K) + Y(I,J)*Y(I,K) + Z(I,J)*Z(I,K)) = DELTA(J,K)

  MODE FREQ(CM**-1)  SYMMETRY  RED. MASS  IR INTENS.
     1     484.650    A        6.897074    0.013012
     2     325.375    A        6.847763    0.570691
     3      11.701    A        2.891701    0.583771
     4       0.022    A        9.295228    0.000002
     5       0.040    A        9.300987    0.000001
     6       0.085    A        9.308713    0.000012
     7     112.136    A        1.031969    0.030681
     8     339.727    A        2.595450    0.614779
     9     513.331    A        1.193700    0.596770
    10     969.789    A        3.272922    0.195343
    11    1134.933    A        1.220463    0.655863
    12    1188.482    A        1.437262    1.002065
    13    1456.752    A        1.183990    0.033293
    14    1731.074    A        1.243554    2.762674
    15    1797.480    A        3.720788    5.398881
    16    1868.891    A        1.046369    1.374864
    17    1877.825    A        1.093790    0.594013
    18    3695.349    A        1.103290    0.514382
    19    3802.373    A        1.033860    2.124262
    20    3968.456    A        1.095865    3.654195
    21    3990.345    A        1.097468    3.936904

     -------------------------------
     THERMOCHEMISTRY AT T=  298.15 K
     -------------------------------

 USING IDEAL GAS, RIGID ROTOR, HARMONIC NORMAL MODE APPROXIMATIONS.
 P=  1.01325E+05 PASCAL.
 ALL FREQUENCIES ARE SCALED BY   1.00000
 THE MOMENTS OF INERTIA ARE (IN AMU*BOHR**2)
             40.22563           305.03297           334.22089
 THE ROTATIONAL SYMMETRY NUMBER IS  1.0
 THE ROTATIONAL CONSTANTS ARE (IN GHZ)
     44.82436     5.91113     5.39490
      7 -     21 VIBRATIONAL MODES ARE USED IN THERMOCHEMISTRY.
 THE HARMONIC ZERO POINT ENERGY IS (SCALED BY   1.000)
        0.064807 HARTREE/MOLECULE    14223.471222 CM**-1/MOLECULE 
       40.666986 KCAL/MOL              170.150668 KJ/MOL

               Q               LN Q
 ELEC.     2.00000E+00       0.693147
 TRANS.    2.05995E+07      16.840776
 ROT.      2.29236E+04      10.039923
 VIB.      3.30112E+00       1.194261
 TOT.      3.11767E+12      28.768107

              E         H         G         CV        CP        S
           KJ/MOL    KJ/MOL    KJ/MOL   J/MOL-K   J/MOL-K   J/MOL-K
 ELEC.      0.000     0.000    -1.718     0.000     0.000     5.763
 TRANS.     3.718     6.197   -41.747    12.472    20.786   160.807
 ROT.       3.718     3.718   -24.888    12.472    12.472    95.948
 VIB.     173.802   173.802   167.190    24.331    24.331    22.176
 TOTAL    181.239   183.718    98.836    49.274    57.588   284.694
 VIB. THERMAL CORRECTION E(T)-E(0) = H(T)-H(0) =      3651.227 J/MOL

              E         H         G         CV        CP        S
         KCAL/MOL  KCAL/MOL  KCAL/MOL CAL/MOL-K CAL/MOL-K CAL/MOL-K
 ELEC.      0.000     0.000    -0.411     0.000     0.000     1.377
 TRANS.     0.889     1.481    -9.978     2.981     4.968    38.434
 ROT.       0.889     0.889    -5.948     2.981     2.981    22.932
 VIB.      41.540    41.540    39.959     5.815     5.815     5.300
 TOTAL     43.317    43.910    23.622    11.777    13.764    68.043
 VIB. THERMAL CORRECTION E(T)-E(0) = H(T)-H(0) =       872.664 CAL/MOL

     *******************************************************
     * THIS IS NOT A STATIONARY POINT ON THE MOLECULAR PES *
     *     THE VIBRATIONAL ANALYSIS IS NOT VALID !!!       *
     *******************************************************
 ......END OF NORMAL COORDINATE ANALYSIS......
 STEP CPU TIME =     0.01 TOTAL CPU TIME =          5.1 (      0.1 MIN)
 TOTAL WALL CLOCK TIME=          5.2 SECONDS, CPU UTILIZATION IS    97.51%
               580000  WORDS OF DYNAMIC MEMORY USED
 EXECUTION OF GAMESS TERMINATED NORMALLY Tue Dec 21 21:44:12 2021
 DDI: 263640 bytes (0.3 MB / 0 MWords) used by master data server.

 ----------------------------------------
 CPU timing information for all processes
 ========================================
 0: 4.261 + 0.847 = 5.109
 ----------------------------------------
 ddikick.x: exited gracefully.
----- accounting info -----
Files used on the master node chemcompute-node-0.novalocal were:
-rw-r--r--. 1 chemcomp chemcomp       797 Dec 21 21:44 /scratch/330194/368176.F05
-rw-rw-r--. 1 chemcomp chemcomp    540048 Dec 21 21:44 /scratch/330194/368176.F08
-rw-rw-r--. 1 chemcomp chemcomp 104857600 Dec 21 21:44 /scratch/330194/368176.F10
-rw-rw-r--. 1 chemcomp chemcomp     93072 Dec 21 21:44 /scratch/330194/368176.F18
Tue Dec 21 21:44:15 UTC 2021
0.165u 0.097s 0:08.86 2.8%	0+0k 8+216io 0pf+0w
Finishing Up...
Looking for IR data...
Looking for Raman data...
vibramans not found
Looking for thermodynamics data...
Looking for UV-Vis data...
330194
