----- GAMESS execution script 'rungms' -----
This job is running on host chemcompute-node-0.novalocal
under operating system Linux at Tue Dec 21 21:48:43 UTC 2021
SLURM has assigned the following compute nodes to this run:
chemcompute-node-0
Available scratch disk space (Kbyte units) at beginning of the job is
Filesystem     1K-blocks     Used Available Use% Mounted on
/dev/sda1       62903276 16697280  46205996  27% /
GAMESS temporary binary files will be written to /scratch/330198
GAMESS supplementary output files will be written to /data/slurm/368180
Copying input file 368180.inp to your run's scratch directory...
The generated host list is
chemcompute-node-0.novalocal

 Distributed Data Interface kickoff program.
 Initiating 1 compute processes on 1 nodes to run the following command:
 /data/gamess-2019R1-ddi/gamess.00.x 368180 

          ******************************************************
          *         GAMESS VERSION = 30 JUN 2019 (R1)          *
          *             FROM IOWA STATE UNIVERSITY             *
          * M.W.SCHMIDT, K.K.BALDRIDGE, J.A.BOATZ, S.T.ELBERT, *
          *   M.S.GORDON, J.H.JENSEN, S.KOSEKI, N.MATSUNAGA,   *
          *          K.A.NGUYEN, S.J.SU, T.L.WINDUS,           *
          *       TOGETHER WITH M.DUPUIS, J.A.MONTGOMERY       *
          *         J.COMPUT.CHEM.  14, 1347-1363(1993)        *
          **************** 64 BIT LINUX VERSION ****************

  SINCE 1993, STUDENTS AND POSTDOCS WORKING AT IOWA STATE UNIVERSITY
  AND ALSO IN THEIR VARIOUS JOBS AFTER LEAVING ISU HAVE MADE IMPORTANT
  CONTRIBUTIONS TO THE CODE:
     IVANA ADAMOVIC, CHRISTINE AIKENS, YURI ALEXEEV, POOJA ARORA,
     ANDREY ASADCHEV, ROB BELL, PRADIPTA BANDYOPADHYAY, JONATHAN BENTZ,
     COLLEEN BERTONI, BRETT BODE, KURT BRORSEN, CALEB CARLIN, GALINA CHABAN,
     WEI CHEN, CHEOL HO CHOI, PAUL DAY, ALBERT DEFUSCO, NUWAN DESILVA,
     TIM DUDLEY, DMITRI FEDOROV, ALEX FINDLATER, GRAHAM FLETCHER, 
     MARK FREITAG, KURT GLAESEMANN, ANASTASIA GUNINA,
     DAN KEMP, GRANT MERRILL, NORIYUKI MINEZAWA, JONATHAN MULLIN,
     TAKESHI NAGATA, SEAN NEDD, HEATHER NETZLOFF, BOSILJKA NJEGIC, RYAN OLSON,
     MIKE PAK, BUU PHAM,
     SPENCER PRUITT, LUKE ROSKOP, JIM SHOEMAKER, LYUDMILA SLIPCHENKO,
     TONY SMITH, SAROM SOK LEANG, JIE SONG, TETSUYA TAKETSUGU, SIMON WEBB,
     PENG XU, SOOHAENG YOO, FEDERICO ZAHARIEV

  ADDITIONAL CODE HAS BEEN PROVIDED BY COLLABORATORS IN OTHER GROUPS:
     IOWA STATE UNIVERSITY:
          JOE IVANIC, AARON WEST, LAIMUTIS BYTAUTAS, KLAUS RUEDENBERG
     UNIVERSITY OF TOKYO: KIMIHIKO HIRAO, TAKAHITO NAKAJIMA,
          TAKAO TSUNEDA, MUNEAKI KAMIYA, SUSUMU YANAGISAWA,
          KIYOSHI YAGI, MAHITO CHIBA, SEIKEN TOKURA, NAOAKI KAWAKAMI
     UNIVERSITY OF AARHUS: FRANK JENSEN
     UNIVERSITY OF IOWA: VISVALDAS KAIRYS, HUI LI
     NATIONAL INST. OF STANDARDS AND TECHNOLOGY: WALT STEVENS, DAVID GARMER
     UNIVERSITY OF PISA: BENEDETTA MENNUCCI, JACOPO TOMASI
     UNIVERSITY OF MEMPHIS: HENRY KURTZ, PRAKASHAN KORAMBATH
     UNIVERSITY OF ALBERTA: TOBY ZENG, MARIUSZ KLOBUKOWSKI
     UNIVERSITY OF NEW ENGLAND: MARK SPACKMAN
     MIE UNIVERSITY: HIROAKI UMEDA
     NAT. INST. OF ADVANCED INDUSTRIAL SCIENCE AND TECHNOLOGY: KAZUO KITAURA
     MICHIGAN STATE UNIVERSITY:
          KAROL KOWALSKI, MARTA WLOCH, JEFFREY GOUR, JESSE LUTZ,
          WEI LI, JUN SHEN, J. EMILIANO DEUSTUA, PIOTR PIECUCH
     UNIVERSITY OF MINNESOTA:
          YINAN SHU
     UNIVERSITY OF SILESIA: MONIKA MUSIAL, STANISLAW KUCHARSKI
     FACULTES UNIVERSITAIRES NOTRE-DAME DE LA PAIX:
          OLIVIER QUINET, BENOIT CHAMPAGNE
     UNIVERSITY OF CALIFORNIA - SANTA BARBARA: BERNARD KIRTMAN
     INSTITUTE FOR MOLECULAR SCIENCE:
          KAZUYA ISHIMURA, MICHIO KATOUDA, AND SHIGERU NAGASE
     UNIVERSITY OF NOTRE DAME: ANNA POMOGAEVA, DAN CHIPMAN
     KYUSHU UNIVERSITY:
          HARUYUKI NAKANO,
          FENG LONG GU, JACEK KORCHOWIEC, MARCIN MAKOWSKI, AND YURIKO AOKI,
          HIROTOSHI MORI AND EISAKU MIYOSHI
     PENNSYLVANIA STATE UNIVERSITY:
          TZVETELIN IORDANOV, CHET SWALINA, JONATHAN SKONE,
          SHARON HAMMES-SCHIFFER
     WASEDA UNIVERSITY:
          MASATO KOBAYASHI, TOMOKO AKAMA, TSUGUKI TOUMA,
          TAKESHI YOSHIKAWA, YASUHIRO IKABATA, JUNJI SEINO,
          YUYA NAKAJIMA, HIROMI NAKAI
     NANJING UNIVERSITY: SHUHUA LI
     UNIVERSITY OF NEBRASKA:
          PEIFENG SU, DEJUN SI, NANDUN THELLAMUREGE, YALI WANG, HUI LI
     UNIVERSITY OF ZURICH: ROBERTO PEVERATI, KIM BALDRIDGE
     N. COPERNICUS UNIVERSITY AND JACKSON STATE UNIVERSITY:
          MARIA BARYSZ
     UNIVERSITY OF COPENHAGEN: Jimmy Kromann, CASPER STEINMANN
     TOKYO INSTITUTE OF TECHNOLOGY: HIROYA NAKATA
     NAGOYA UNIVERSITY: YOSHIO NISHIMOTO, STEPHAN IRLE
     MOSCOW STATE UNIVERSITY: VLADIMIR MIRONOV
     A.N.NESMEYANOV INSTITUTE OF ORGANOELEMENT COMPOUNDS OF RUSSIAN ACADEMY OF SCIENCES:
          IGOR S. GERASIMOV

 EXECUTION OF GAMESS BEGUN Tue Dec 21 21:48:43 2021

            ECHO OF THE FIRST FEW INPUT CARDS -
 INPUT CARD>!File created by the GAMESS Input Deck Generator Plugin for Avogadro            
 INPUT CARD> $BASIS GBASIS=STO NGAUSS=3 $END                                                
 INPUT CARD> $CONTRL SCFTYP=UHF RUNTYP=SADPOINT $END                                        
 INPUT CARD> $STATPT hssend=.t. OPTTOL=0.0005 NSTEP=50 $END                                 
 INPUT CARD> $STATPT HESS=calc ihrep=5 $END                                                 
 INPUT CARD> $FORCE nvib=2 $END                                                             
 INPUT CARD> $ZMAT DLC=.t. auto=.t. nonvdw(1)=1,7,1,2,2,3 $END                              
 INPUT CARD>!$ZMAT IFZMAT(1)=1,2,3 fvalue(1)=2.00,2.00 $END                                 
 INPUT CARD>                                                                                
 INPUT CARD> $DATA                                                                          
 INPUT CARD>Title                                                                           
 INPUT CARD>C1                                                                              
 INPUT CARD>N     7.0    -7.32734108     2.75741673    -0.21713422                          
 INPUT CARD>C     6.0    -5.80113888     2.79293752    -0.15029018                          
 INPUT CARD>Cl    17.0    -5.14559078     3.73960996     0.81099480                         
 INPUT CARD>H     1.0    -5.37110806     2.43221498    -1.08318174                          
 INPUT CARD>H     1.0    -7.75420618     2.86205268     0.73032844                          
 INPUT CARD>H     1.0    -7.64691877     1.84489167    -0.60997164                          
 INPUT CARD>H     1.0    -7.71860600     3.51474738    -0.82352054                          
 INPUT CARD> $END                                                                           
    1000000 WORDS OF MEMORY AVAILABLE

     BASIS OPTIONS
     -------------
     GBASIS=STO          IGAUSS=       3      POLAR=NONE    
     NDFUNC=       0     NFFUNC=       0     DIFFSP=       F
     NPFUNC=       0      DIFFS=       F     BASNAM=        


     RUN TITLE
     ---------
 Title                                                                           

 THE POINT GROUP OF THE MOLECULE IS C1      
 THE ORDER OF THE PRINCIPAL AXIS IS     0

 ATOM      ATOMIC                      COORDINATES (BOHR)
           CHARGE         X                   Y                   Z
 N           7.0   -13.8466668598        5.2107620537       -0.4103241784
 C           6.0   -10.9625628999        5.2778866136       -0.2840072588
 CL         17.0    -9.7237566191        7.0668381254        1.5325579495
 H           1.0   -10.1499224838        4.5962198554       -2.0469166835
 H           1.0   -14.6533249325        5.4084953276        1.3801206326
 H           1.0   -14.4505811257        3.4863397333       -1.1526792599
 H           1.0   -14.5860503472        6.6419094643       -1.5562281659

          INTERNUCLEAR DISTANCES (ANGS.)
          ------------------------------

                1 N          2 C          3 CL         4 H          5 H     

   1 N       0.0000000    1.5280782 *  2.6041865 *  2.1639413 *  1.0444367 *
   2 C       1.5280782 *  0.0000000    1.5000003 *  1.0887304 *  2.1435340 *
   3 CL      2.6041865 *  1.5000003 *  0.0000000    2.3125839 *  2.7534502 *
   4 H       2.1639413 *  1.0887304 *  2.3125839 *  0.0000000    3.0253490  
   5 H       1.0444367 *  2.1435340 *  2.7534502 *  3.0253490    0.0000000  
   6 H       1.0436250 *  2.1253238 *  3.4446690    2.3975385 *  1.6859808 *
   7 H       1.0461082 *  2.1566012 *  3.0565685    2.5980852 *  1.6857415 *

                6 H          7 H     

   1 N       1.0436250 *  1.0461082 *
   2 C       2.1253238 *  2.1566012 *
   3 CL      3.4446690    3.0565685  
   4 H       2.3975385 *  2.5980852 *
   5 H       1.6859808 *  1.6857415 *
   6 H       0.0000000    1.6849808 *
   7 H       1.6849808 *  0.0000000  

  * ... LESS THAN  3.000


     ATOMIC BASIS SET
     ----------------
 THE CONTRACTED PRIMITIVE FUNCTIONS HAVE BEEN UNNORMALIZED
 THE CONTRACTED BASIS FUNCTIONS ARE NOW NORMALIZED TO UNITY

  SHELL TYPE  PRIMITIVE        EXPONENT          CONTRACTION COEFFICIENT(S)

 N         

      1   S       1            99.1061690    0.154328967295
      1   S       2            18.0523124    0.535328142282
      1   S       3             4.8856602    0.444634542185

      2   L       4             3.7804559   -0.099967229187    0.155916274999
      2   L       5             0.8784966    0.399512826089    0.607683718598
      2   L       6             0.2857144    0.700115468880    0.391957393099

 C         

      3   S       7            71.6168373    0.154328967295
      3   S       8            13.0450963    0.535328142282
      3   S       9             3.5305122    0.444634542185

      4   L      10             2.9412494   -0.099967229187    0.155916274999
      4   L      11             0.6834831    0.399512826089    0.607683718598
      4   L      12             0.2222899    0.700115468880    0.391957393099

 CL        

      5   S      13           601.3456136    0.154328967295
      5   S      14           109.5358542    0.535328142282
      5   S      15            29.6446769    0.444634542185

      6   L      16            38.9604189   -0.099967229187    0.155916274999
      6   L      17             9.0535635    0.399512826089    0.607683718598
      6   L      18             2.9444998    0.700115468880    0.391957393099

      7   L      19             2.2112785   -0.219620369005    0.010587604289
      7   L      20             0.6169411    0.225595433605    0.595167005266
      7   L      21             0.2414666    0.900398426019    0.462001011973

 H         

      8   S      22             3.4252509    0.154328967295
      8   S      23             0.6239137    0.535328142282
      8   S      24             0.1688554    0.444634542185

 H         

      9   S      25             3.4252509    0.154328967295
      9   S      26             0.6239137    0.535328142282
      9   S      27             0.1688554    0.444634542185

 H         

     10   S      28             3.4252509    0.154328967295
     10   S      29             0.6239137    0.535328142282
     10   S      30             0.1688554    0.444634542185

 H         

     11   S      31             3.4252509    0.154328967295
     11   S      32             0.6239137    0.535328142282
     11   S      33             0.1688554    0.444634542185

 TOTAL NUMBER OF BASIS SET SHELLS             =   11
 NUMBER OF CARTESIAN GAUSSIAN BASIS FUNCTIONS =   23
 NUMBER OF ELECTRONS                          =   34
 CHARGE OF MOLECULE                           =    0
 SPIN MULTIPLICITY                            =    1
 NUMBER OF OCCUPIED ORBITALS (ALPHA)          =   17
 NUMBER OF OCCUPIED ORBITALS (BETA )          =   17
 TOTAL NUMBER OF ATOMS                        =    7
 THE NUCLEAR REPULSION ENERGY IS      108.6754679248

     $CONTRL OPTIONS
     ---------------
 SCFTYP=UHF          RUNTYP=SADPOINT     EXETYP=RUN     
 MPLEVL=       0     CITYP =NONE         CCTYP =NONE         VBTYP =NONE    
 DFTTYP=NONE         TDDFT =NONE    
 MULT  =       1     ICHARG=       0     NZVAR =       0     COORD =UNIQUE  
 PP    =NONE         RELWFN=NONE         LOCAL =NONE         NUMGRD=       F
 ISPHER=      -1     NOSYM =       0     MAXIT =      30     UNITS =ANGS    
 PLTORB=       F     MOLPLT=       F     AIMPAC=       F     FRIEND=        
 NPRINT=       7     IREST =       0     GEOM  =INPUT   
 NORMF =       0     NORMP =       0     ITOL  =      20     ICUT  =       9
 INTTYP=BEST         GRDTYP=BEST         QMTTOL= 1.0E-06

     $SYSTEM OPTIONS
     ---------------
  REPLICATED MEMORY=     1000000 WORDS (ON EVERY NODE).
 DISTRIBUTED MEMDDI=           0 MILLION WORDS IN AGGREGATE,
 MEMDDI DISTRIBUTED OVER   1 PROCESSORS IS           0 WORDS/PROCESSOR.
 TOTAL MEMORY REQUESTED ON EACH PROCESSOR=     1000000 WORDS.
 TIMLIM=      525600.00 MINUTES, OR     365.0 DAYS.
 PARALL= F  BALTYP=  DLB     KDIAG=    0  COREFL= F
 MXSEQ2=     300 MXSEQ3=     150  mem10=         0

          ----------------
          PROPERTIES INPUT
          ----------------

     MOMENTS            FIELD           POTENTIAL          DENSITY
 IEMOM =       1   IEFLD =       0   IEPOT =       0   IEDEN =       0
 WHERE =COMASS     WHERE =NUCLEI     WHERE =NUCLEI     WHERE =NUCLEI  
 OUTPUT=BOTH       OUTPUT=BOTH       OUTPUT=BOTH       OUTPUT=BOTH    
 IEMINT=       0   IEFINT=       0                     IEDINT=       0
                                                       MORB  =       0
          EXTRAPOLATION IN EFFECT
          SOSCF IN EFFECT
          DIIS or SOSCF will be reset if energy rises
 ORBITAL PRINTING OPTION: NPREO=     1    23     2     1

     -------------------------------
     INTEGRAL TRANSFORMATION OPTIONS
     -------------------------------
     NWORD  =            0
     CUTOFF = 1.0E-09     MPTRAN =       0
     DIRTRF =       F     AOINTS =DUP     

          ----------------------
          INTEGRAL INPUT OPTIONS
          ----------------------
 NOPK  =       1 NORDER=       0 SCHWRZ=       T

     ------------------------------------------
     THE POINT GROUP IS C1 , NAXIS= 0, ORDER= 1
     ------------------------------------------

     DIMENSIONS OF THE SYMMETRY SUBSPACES ARE
 A   =   23

 ..... DONE SETTING UP THE RUN .....
 STEP CPU TIME =     0.03 TOTAL CPU TIME =          0.0 (      0.0 MIN)
 TOTAL WALL CLOCK TIME=          0.0 SECONDS, CPU UTILIZATION IS   100.00%


          -----------------------------
          STATIONARY POINT LOCATION RUN
          -----------------------------

 OBTAINING INITIAL HESSIAN, HESS=CALC    

     ---------------------------------
     HESSIAN MATRIX CONTROL PARAMETERS
     ---------------------------------
     METHOD=ANALYTIC   NVIB  =       2   VIBSIZ= 0.01000
     RDHESS=       F   PURIFY=       F   PRTIFC=       F
     VIBANL=       F   DECOMP=       F   PROJCT=       F
     SCLFAC= 1.00000   PRTSCN=       F   NPRT  =       0
     PULCOR=       F   NPUN  =       0   REDOVB=       T
     HSSTYP=GENERAL 
 Old integral subroutine is used

     ------------------------------
     CPHF RESPONSE SOLUTION OPTIONS
     ------------------------------
     POLAR  =       F     NWORD  =       0
     CPHF   =AO      

          ********************
          1 ELECTRON INTEGRALS
          ********************
 ...... END OF ONE-ELECTRON INTEGRALS ......
 STEP CPU TIME =     0.00 TOTAL CPU TIME =          0.0 (      0.0 MIN)
 TOTAL WALL CLOCK TIME=          0.0 SECONDS, CPU UTILIZATION IS    60.00%

          -------------
          GUESS OPTIONS
          -------------
          GUESS =HUCKEL            NORB  =       0          NORDER=       0
          MIX   =       F          PRTMO =       F          PUNMO =       F
          TOLZ  = 1.0E-08          TOLE  = 1.0E-05
          SYMDEN=       F          PURIFY=       F

 INITIAL GUESS ORBITALS GENERATED BY HUCKEL   ROUTINE.
 HUCKEL GUESS REQUIRES     10848 WORDS.

 SYMMETRIES FOR INITIAL GUESS ORBITALS FOLLOW.  ALPHA SET(S).
    17 ORBITALS ARE OCCUPIED (    7 CORE ORBITALS).
     8=A        9=A       10=A       11=A       12=A       13=A       14=A   
    15=A       16=A       17=A       18=A       19=A       20=A       21=A   
    22=A       23=A   

 SYMMETRIES FOR INITIAL GUESS ORBITALS FOLLOW.   BETA SET(S).
    17 ORBITALS ARE OCCUPIED (    7 CORE ORBITALS).
     8=A        9=A       10=A       11=A       12=A       13=A       14=A   
    15=A       16=A       17=A       18=A       19=A       20=A       21=A   
    22=A       23=A   
 ...... END OF INITIAL ORBITAL SELECTION ......
 STEP CPU TIME =     0.03 TOTAL CPU TIME =          0.1 (      0.0 MIN)
 TOTAL WALL CLOCK TIME=          0.1 SECONDS, CPU UTILIZATION IS    85.71%

                    ----------------------
                    AO INTEGRAL TECHNOLOGY
                    ----------------------
     S,P,L SHELL ROTATED AXIS INTEGRALS, REPROGRAMMED BY
        KAZUYA ISHIMURA (IMS) AND JOSE SIERRA (SYNSTAR).
     S,P,D,L SHELL ROTATED AXIS INTEGRALS PROGRAMMED BY
        KAZUYA ISHIMURA (INSTITUTE FOR MOLECULAR SCIENCE).
     S,P,D,F,G SHELL TO TOTAL QUARTET ANGULAR MOMENTUM SUM 5,
        ERIC PROGRAM BY GRAHAM FLETCHER (ELORET AND NASA ADVANCED
        SUPERCOMPUTING DIVISION, AMES RESEARCH CENTER).
     S,P,D,F,G,L SHELL GENERAL RYS QUADRATURE PROGRAMMED BY
        MICHEL DUPUIS (PACIFIC NORTHWEST NATIONAL LABORATORY).

          --------------------
          2 ELECTRON INTEGRALS
          --------------------

 THE -PK- OPTION IS OFF, THE INTEGRALS ARE NOT IN SUPERMATRIX FORM.
 STORING   15000 INTEGRALS/RECORD ON DISK, USING 12 BYTES/INTEGRAL.
 TWO ELECTRON INTEGRAL EVALUATION REQUIRES   89422 WORDS OF MEMORY.
 SCHWARZ INEQUALITY OVERHEAD:       271 INTEGRALS, T=        0.00
 II,JST,KST,LST =  1  1  1  1 NREC =         1 INTLOC =    1
 II,JST,KST,LST =  2  1  1  1 NREC =         1 INTLOC =    2
 II,JST,KST,LST =  3  1  1  1 NREC =         1 INTLOC =   34
 II,JST,KST,LST =  4  1  1  1 NREC =         1 INTLOC =  132
 II,JST,KST,LST =  5  1  1  1 NREC =         1 INTLOC = 1330
 II,JST,KST,LST =  6  1  1  1 NREC =         1 INTLOC = 1862
 II,JST,KST,LST =  7  1  1  1 NREC =         1 INTLOC = 6105
 II,JST,KST,LST =  8  1  1  1 NREC =         2 INTLOC =  740
 II,JST,KST,LST =  9  1  1  1 NREC =         2 INTLOC = 4604
 II,JST,KST,LST = 10  1  1  1 NREC =         2 INTLOC = 9081
 II,JST,KST,LST = 11  1  1  1 NREC =         2 INTLOC =14244
 SCHWARZ INEQUALITY TEST SKIPPED         239 INTEGRAL BLOCKS.
 TOTAL NUMBER OF NONZERO TWO-ELECTRON INTEGRALS =               35158
          3 INTEGRAL RECORDS WERE STORED ON DISK FILE  8.
  ...... END OF TWO-ELECTRON INTEGRALS .....
 STEP CPU TIME =     0.01 TOTAL CPU TIME =          0.1 (      0.0 MIN)
 TOTAL WALL CLOCK TIME=          0.1 SECONDS, CPU UTILIZATION IS    77.78%

          ---------------------------
                  UHF SCF CALCULATION
          ---------------------------

     NUCLEAR ENERGY =       108.6754679248
     MAXIT = 30     NPUNCH=  2     MULT=  1
     EXTRAP=T  DAMP=F  SHIFT=F  RSTRCT=F  DIIS=F  SOSCF=T
     DENSITY MATRIX CONV=  1.00E-05
     SOSCF WILL OPTIMIZE     102 ALPHA AND     102 BETA ROTATION ANGLES.
     SOGTOL= 2.500E-01
     MEMORY REQUIRED FOR UHF/ROHF ITERS=     37086 WORDS.

 ITER EX      TOTAL ENERGY        E CHANGE  DENSITY CHANGE    ORB. GRAD 
   1  0     -547.4702380809  -547.4702380809   0.753082608   0.000000000
          ---------------START SECOND ORDER SCF---------------
   2  1     -547.7690841779    -0.2988460969   0.134140378   0.062217892
   3  2     -547.7873965567    -0.0183123788   0.062758506   0.021513153
   4  3     -547.7889302386    -0.0015336819   0.013298966   0.002567103
   5  4     -547.7889875432    -0.0000573045   0.001466876   0.000490569
   6  5     -547.7889902474    -0.0000027042   0.000783180   0.000214198
   7  6     -547.7889906076    -0.0000003602   0.000179756   0.000038620
   8  7     -547.7889906278    -0.0000000201   0.000073479   0.000016644
   9  8     -547.7889906308    -0.0000000030   0.000011002   0.000005051
  10  9     -547.7889906309    -0.0000000001   0.000003805   0.000000923
  11 10     -547.7889906309    -0.0000000000   0.000000737   0.000000170

          -----------------
          DENSITY CONVERGED
          -----------------
     TIME TO FORM FOCK OPERATORS=       0.0 SECONDS (       0.0 SEC/ITER)
     TIME TO SOLVE SCF EQUATIONS=       0.0 SECONDS (       0.0 SEC/ITER)

 FINAL UHF ENERGY IS     -547.7889906309 AFTER  11 ITERATIONS

          --------------------
          SPIN SZ   =    0.000
          S-SQUARED =   -0.000
          --------------------

  ----- ALPHA SET ----- 

          ------------
          EIGENVECTORS
          ------------

                      1          2          3          4          5
                 -103.5593   -15.5432   -10.8345   -10.2606    -7.7043
                     A          A          A          A          A   
    1  N  1  S    0.000002   0.993300   0.000520  -0.000027   0.000025
    2  N  1  S   -0.000035   0.032381  -0.004710   0.000669  -0.000685
    3  N  1  X   -0.000003  -0.001343  -0.003996   0.000019  -0.000216
    4  N  1  Y   -0.000004  -0.000119  -0.000370  -0.000087   0.000048
    5  N  1  Z   -0.000014  -0.000046  -0.000276   0.000098  -0.000072
    6  C  2  S   -0.000063   0.000405   0.991923   0.001447  -0.000756
    7  C  2  S    0.000648  -0.003938   0.036278  -0.012675   0.016925
    8  C  2  X    0.000213   0.003555   0.000241  -0.003691   0.004555
    9  C  2  Y    0.000319   0.000013   0.003636  -0.005457   0.007044
   10  C  2  Z    0.000324   0.000162   0.000297  -0.005513   0.006885
   11  CL 3  S    0.994481   0.000003   0.000087  -0.376670  -0.005752
   12  CL 3  S    0.015806   0.000003  -0.000605   1.052376   0.016197
   13  CL 3  X   -0.000078   0.000038  -0.000277  -0.006407   0.459603
   14  CL 3  Y   -0.000100   0.000000  -0.000333  -0.006846   0.593585
   15  CL 3  Z   -0.000107  -0.000003  -0.000398  -0.007933   0.640551
   16  CL 3  S   -0.002090   0.000213  -0.007558   0.050190  -0.010723
   17  CL 3  X    0.000202  -0.000328   0.002812  -0.004367   0.024525
   18  CL 3  Y    0.000287  -0.000019   0.003600  -0.005962   0.032286
   19  CL 3  Z    0.000292  -0.000005   0.004076  -0.006170   0.034456
   20  H  4  S    0.000001   0.000266  -0.006927   0.000082  -0.000355
   21  H  5  S    0.000031  -0.005948  -0.000397  -0.000653   0.000373
   22  H  6  S    0.000008  -0.005945  -0.000383  -0.000142   0.000141
   23  H  7  S    0.000005  -0.005919  -0.000509  -0.000113   0.000046

                      6          7          8          9         10
                   -7.6977    -7.6965    -1.2432    -1.0294    -0.7279
                     A          A          A          A          A   
    1  N  1  S    0.000065  -0.000001  -0.223291   0.039639  -0.004848
    2  N  1  S   -0.001036   0.000077   0.770594  -0.143799   0.028512
    3  N  1  X   -0.000284   0.000071  -0.052899   0.106556   0.418524
    4  N  1  Y    0.000403   0.000107   0.002037   0.021944  -0.133083
    5  N  1  Z    0.000108  -0.000353  -0.000408   0.021387  -0.321631
    6  C  2  S    0.000029   0.000020  -0.052511  -0.114431  -0.123846
    7  C  2  S   -0.000583   0.000281   0.103870   0.257962   0.376873
    8  C  2  X   -0.004669   0.000633  -0.040331   0.050862  -0.067770
    9  C  2  Y    0.000870  -0.003122   0.015220   0.097227  -0.026238
   10  C  2  Z    0.001906   0.003321   0.005477   0.075600  -0.109397
   11  CL 3  S   -0.000275   0.000153   0.009063   0.077063  -0.028089
   12  CL 3  S    0.000784  -0.000439  -0.030875  -0.258296   0.090228
   13  CL 3  X    0.869924  -0.097693   0.008120   0.029743   0.011241
   14  CL 3  Y   -0.230197   0.755950   0.006395   0.032919   0.019945
   15  CL 3  Z   -0.410745  -0.630572   0.007018   0.037694   0.027751
   16  CL 3  S    0.000184  -0.000262   0.083111   0.784138  -0.345160
   17  CL 3  X    0.036660  -0.003969  -0.020373  -0.082515  -0.031604
   18  CL 3  Y   -0.009877   0.031886  -0.016025  -0.084924  -0.059826
   19  CL 3  Z   -0.017519  -0.026275  -0.017632  -0.099880  -0.082660
   20  H  4  S    0.000797   0.000288   0.017894   0.051621   0.188233
   21  H  5  S    0.000824   0.000239   0.124850  -0.033940  -0.315018
   22  H  6  S    0.000131  -0.000082   0.122601  -0.052802   0.097097
   23  H  7  S    0.000113  -0.000172   0.121684  -0.042578  -0.028440

                     11         12         13         14         15
                   -0.7054    -0.7029    -0.5298    -0.4462    -0.3912
                     A          A          A          A          A   
    1  N  1  S   -0.001500  -0.007672  -0.039266  -0.007986   0.002542
    2  N  1  S    0.008526   0.040016   0.188820   0.037250  -0.012894
    3  N  1  X    0.029217   0.303052   0.472338   0.079195  -0.022542
    4  N  1  Y    0.612338   0.138525  -0.003711   0.055433  -0.064414
    5  N  1  Z   -0.187729   0.517231  -0.053474   0.105316   0.024716
    6  C  2  S   -0.005281  -0.077284   0.081053   0.016974   0.017208
    7  C  2  S    0.018810   0.245369  -0.263978  -0.063097  -0.064628
    8  C  2  X   -0.018309  -0.087793  -0.331143  -0.022229  -0.041690
    9  C  2  Y    0.081570  -0.004795  -0.008238  -0.193500   0.348779
   10  C  2  Z   -0.042500   0.021567   0.114322  -0.393507  -0.159396
   11  CL 3  S   -0.006507  -0.027836   0.018670   0.019402  -0.002807
   12  CL 3  S    0.020854   0.089161  -0.056827  -0.056698   0.008212
   13  CL 3  X    0.009093   0.030767   0.030284  -0.130978   0.072094
   14  CL 3  Y   -0.003931   0.022171  -0.071323  -0.133355  -0.170060
   15  CL 3  Z    0.010271   0.016365  -0.097252  -0.067623   0.164565
   16  CL 3  S   -0.081007  -0.346815   0.274082   0.317784  -0.045954
   17  CL 3  X   -0.028334  -0.094363  -0.111109   0.432363  -0.249877
   18  CL 3  Y    0.013495  -0.065234   0.226285   0.433324   0.601428
   19  CL 3  Z   -0.030526  -0.046061   0.312015   0.207334  -0.573039
   20  H  4  S    0.005960   0.060987  -0.315962   0.322594  -0.051365
   21  H  5  S   -0.085065   0.280747  -0.140986   0.097855   0.022339
   22  H  6  S   -0.336386  -0.271887  -0.030528  -0.101143   0.070482
   23  H  7  S    0.393075  -0.206354  -0.058655  -0.036759  -0.083607

                     16         17         18         19         20
                   -0.3177    -0.0806     0.4901     0.5451     0.5645
                     A          A          A          A          A   
    1  N  1  S   -0.035597  -0.009819  -0.186684  -0.004892   0.000805
    2  N  1  S    0.185148   0.053778   1.251720   0.028746  -0.003893
    3  N  1  X    0.236652   0.050760  -0.438637   0.124659  -0.027520
    4  N  1  Y    0.009192  -0.001163  -0.012693  -0.519393  -0.849461
    5  N  1  Z    0.020613  -0.004624  -0.024723  -0.801927   0.545337
    6  C  2  S    0.026788   0.044801   0.017595   0.023712   0.001502
    7  C  2  S   -0.091616  -0.208710  -0.080106  -0.139724  -0.012659
    8  C  2  X   -0.017976  -0.068908   0.144287   0.023017  -0.074580
    9  C  2  Y    0.075099   0.757740  -0.033679  -0.131670   0.142184
   10  C  2  Z    0.103583  -0.497799  -0.006793  -0.146948  -0.087945
   11  CL 3  S    0.001099   0.001370   0.002032   0.005873   0.000721
   12  CL 3  S   -0.004220  -0.004686  -0.006262  -0.014793  -0.002221
   13  CL 3  X   -0.220641  -0.016026   0.022685   0.027580  -0.000002
   14  CL 3  Y    0.052132   0.122917  -0.000027   0.026811   0.012309
   15  CL 3  Z    0.135246  -0.087491   0.000412   0.031589  -0.006890
   16  CL 3  S    0.004143   0.013264   0.030149   0.128504   0.010657
   17  CL 3  X    0.796556   0.063568  -0.091863  -0.119305   0.001738
   18  CL 3  Y   -0.183522  -0.471444   0.000804  -0.120234  -0.051790
   19  CL 3  Z   -0.483102   0.341005  -0.001486  -0.138671   0.028766
   20  H  4  S   -0.281532   0.056003   0.039633  -0.115071   0.029586
   21  H  5  S   -0.055006   0.079096  -0.691640   0.880837  -0.432647
   22  H  6  S   -0.036884   0.088499  -0.694336  -0.795436  -0.562839
   23  H  7  S   -0.037868  -0.202710  -0.703376  -0.057795   0.955663

                     21         22         23
                    0.6120     0.7616     0.9008
                     A          A          A   
    1  N  1  S    0.062714  -0.030999  -0.007662
    2  N  1  S   -0.379166   0.197745   0.045850
    3  N  1  X   -0.698801   0.344732   0.058885
    4  N  1  Y   -0.070290  -0.076284  -0.137403
    5  N  1  Z   -0.162095  -0.011539  -0.232020
    6  C  2  S   -0.210137  -0.108214   0.038831
    7  C  2  S    1.186388   0.734992  -0.222921
    8  C  2  X   -0.557695   1.015095  -0.045754
    9  C  2  Y    0.225444   0.316292   0.614447
   10  C  2  Z    0.053890   0.069968   1.044678
   11  CL 3  S   -0.015609  -0.022400  -0.016385
   12  CL 3  S    0.040353   0.053868   0.036145
   13  CL 3  X   -0.086909  -0.029991  -0.071421
   14  CL 3  Y   -0.059833  -0.108514  -0.073314
   15  CL 3  Z   -0.069494  -0.122765  -0.054831
   16  CL 3  S   -0.325868  -0.525416  -0.429144
   17  CL 3  X    0.377882   0.153697   0.341605
   18  CL 3  Y    0.264108   0.504183   0.360839
   19  CL 3  Z    0.305987   0.566540   0.279519
   20  H  4  S   -0.405049  -0.594785   1.004694
   21  H  5  S    0.048160   0.067538   0.140559
   22  H  6  S   -0.142902  -0.005822  -0.139057
   23  H  7  S   -0.131895   0.072725  -0.027506

  ----- BETA SET ----- 

          ------------
          EIGENVECTORS
          ------------

                      1          2          3          4          5
                 -103.5593   -15.5432   -10.8345   -10.2606    -7.7043
                     A          A          A          A          A   
    1  N  1  S    0.000002   0.993300   0.000520  -0.000027   0.000025
    2  N  1  S   -0.000035   0.032381  -0.004710   0.000669  -0.000685
    3  N  1  X   -0.000003  -0.001343  -0.003996   0.000019  -0.000216
    4  N  1  Y   -0.000004  -0.000119  -0.000370  -0.000087   0.000048
    5  N  1  Z   -0.000014  -0.000046  -0.000276   0.000098  -0.000072
    6  C  2  S   -0.000063   0.000405   0.991923   0.001447  -0.000756
    7  C  2  S    0.000648  -0.003938   0.036278  -0.012675   0.016925
    8  C  2  X    0.000213   0.003555   0.000241  -0.003691   0.004555
    9  C  2  Y    0.000319   0.000013   0.003636  -0.005457   0.007044
   10  C  2  Z    0.000324   0.000162   0.000297  -0.005513   0.006885
   11  CL 3  S    0.994481   0.000003   0.000087  -0.376670  -0.005752
   12  CL 3  S    0.015806   0.000003  -0.000605   1.052376   0.016197
   13  CL 3  X   -0.000078   0.000038  -0.000277  -0.006407   0.459603
   14  CL 3  Y   -0.000100   0.000000  -0.000333  -0.006846   0.593585
   15  CL 3  Z   -0.000107  -0.000003  -0.000398  -0.007933   0.640551
   16  CL 3  S   -0.002090   0.000213  -0.007558   0.050190  -0.010723
   17  CL 3  X    0.000202  -0.000328   0.002812  -0.004367   0.024525
   18  CL 3  Y    0.000287  -0.000019   0.003600  -0.005962   0.032286
   19  CL 3  Z    0.000292  -0.000005   0.004076  -0.006170   0.034456
   20  H  4  S    0.000001   0.000266  -0.006927   0.000082  -0.000355
   21  H  5  S    0.000031  -0.005948  -0.000397  -0.000653   0.000373
   22  H  6  S    0.000008  -0.005945  -0.000383  -0.000142   0.000141
   23  H  7  S    0.000005  -0.005919  -0.000509  -0.000113   0.000046

                      6          7          8          9         10
                   -7.6977    -7.6965    -1.2432    -1.0294    -0.7279
                     A          A          A          A          A   
    1  N  1  S    0.000065  -0.000001  -0.223291   0.039639  -0.004848
    2  N  1  S   -0.001036   0.000077   0.770594  -0.143799   0.028512
    3  N  1  X   -0.000284   0.000071  -0.052899   0.106556   0.418524
    4  N  1  Y    0.000403   0.000107   0.002037   0.021944  -0.133083
    5  N  1  Z    0.000108  -0.000353  -0.000408   0.021387  -0.321631
    6  C  2  S    0.000029   0.000020  -0.052511  -0.114431  -0.123846
    7  C  2  S   -0.000583   0.000281   0.103870   0.257962   0.376873
    8  C  2  X   -0.004669   0.000633  -0.040331   0.050862  -0.067770
    9  C  2  Y    0.000870  -0.003122   0.015220   0.097227  -0.026238
   10  C  2  Z    0.001906   0.003321   0.005477   0.075600  -0.109397
   11  CL 3  S   -0.000275   0.000153   0.009063   0.077063  -0.028089
   12  CL 3  S    0.000784  -0.000439  -0.030875  -0.258296   0.090228
   13  CL 3  X    0.869924  -0.097693   0.008120   0.029743   0.011241
   14  CL 3  Y   -0.230197   0.755950   0.006395   0.032919   0.019945
   15  CL 3  Z   -0.410745  -0.630572   0.007018   0.037694   0.027751
   16  CL 3  S    0.000184  -0.000262   0.083111   0.784138  -0.345160
   17  CL 3  X    0.036660  -0.003969  -0.020373  -0.082515  -0.031604
   18  CL 3  Y   -0.009877   0.031886  -0.016025  -0.084924  -0.059826
   19  CL 3  Z   -0.017519  -0.026275  -0.017632  -0.099880  -0.082660
   20  H  4  S    0.000797   0.000288   0.017894   0.051621   0.188233
   21  H  5  S    0.000824   0.000239   0.124850  -0.033940  -0.315018
   22  H  6  S    0.000131  -0.000082   0.122601  -0.052802   0.097097
   23  H  7  S    0.000113  -0.000172   0.121684  -0.042578  -0.028440

                     11         12         13         14         15
                   -0.7054    -0.7029    -0.5298    -0.4462    -0.3912
                     A          A          A          A          A   
    1  N  1  S   -0.001500  -0.007672  -0.039266  -0.007986   0.002542
    2  N  1  S    0.008526   0.040016   0.188820   0.037250  -0.012894
    3  N  1  X    0.029217   0.303052   0.472338   0.079195  -0.022542
    4  N  1  Y    0.612338   0.138525  -0.003711   0.055433  -0.064414
    5  N  1  Z   -0.187729   0.517231  -0.053474   0.105316   0.024716
    6  C  2  S   -0.005281  -0.077284   0.081053   0.016974   0.017208
    7  C  2  S    0.018810   0.245369  -0.263978  -0.063097  -0.064628
    8  C  2  X   -0.018309  -0.087793  -0.331143  -0.022229  -0.041690
    9  C  2  Y    0.081570  -0.004795  -0.008238  -0.193500   0.348779
   10  C  2  Z   -0.042500   0.021567   0.114322  -0.393507  -0.159396
   11  CL 3  S   -0.006507  -0.027836   0.018670   0.019402  -0.002807
   12  CL 3  S    0.020854   0.089161  -0.056827  -0.056698   0.008212
   13  CL 3  X    0.009093   0.030767   0.030284  -0.130978   0.072094
   14  CL 3  Y   -0.003931   0.022171  -0.071323  -0.133355  -0.170060
   15  CL 3  Z    0.010271   0.016365  -0.097252  -0.067623   0.164565
   16  CL 3  S   -0.081007  -0.346815   0.274082   0.317784  -0.045954
   17  CL 3  X   -0.028334  -0.094363  -0.111109   0.432363  -0.249877
   18  CL 3  Y    0.013495  -0.065234   0.226285   0.433324   0.601428
   19  CL 3  Z   -0.030526  -0.046061   0.312015   0.207334  -0.573039
   20  H  4  S    0.005960   0.060987  -0.315962   0.322594  -0.051365
   21  H  5  S   -0.085065   0.280747  -0.140986   0.097855   0.022339
   22  H  6  S   -0.336386  -0.271887  -0.030528  -0.101143   0.070482
   23  H  7  S    0.393075  -0.206354  -0.058655  -0.036759  -0.083607

                     16         17         18         19         20
                   -0.3177    -0.0806     0.4901     0.5451     0.5645
                     A          A          A          A          A   
    1  N  1  S   -0.035597  -0.009819  -0.186684  -0.004892   0.000805
    2  N  1  S    0.185148   0.053778   1.251720   0.028746  -0.003893
    3  N  1  X    0.236652   0.050760  -0.438637   0.124659  -0.027520
    4  N  1  Y    0.009192  -0.001163  -0.012693  -0.519393  -0.849461
    5  N  1  Z    0.020613  -0.004624  -0.024723  -0.801927   0.545337
    6  C  2  S    0.026788   0.044801   0.017595   0.023712   0.001502
    7  C  2  S   -0.091616  -0.208710  -0.080106  -0.139724  -0.012659
    8  C  2  X   -0.017976  -0.068908   0.144287   0.023017  -0.074580
    9  C  2  Y    0.075099   0.757740  -0.033679  -0.131670   0.142184
   10  C  2  Z    0.103583  -0.497799  -0.006793  -0.146948  -0.087945
   11  CL 3  S    0.001099   0.001370   0.002032   0.005873   0.000721
   12  CL 3  S   -0.004220  -0.004686  -0.006262  -0.014793  -0.002221
   13  CL 3  X   -0.220641  -0.016026   0.022685   0.027580  -0.000002
   14  CL 3  Y    0.052132   0.122917  -0.000027   0.026811   0.012309
   15  CL 3  Z    0.135246  -0.087491   0.000412   0.031589  -0.006890
   16  CL 3  S    0.004143   0.013264   0.030149   0.128504   0.010657
   17  CL 3  X    0.796556   0.063568  -0.091863  -0.119305   0.001738
   18  CL 3  Y   -0.183522  -0.471444   0.000804  -0.120234  -0.051790
   19  CL 3  Z   -0.483102   0.341005  -0.001486  -0.138671   0.028766
   20  H  4  S   -0.281532   0.056003   0.039633  -0.115071   0.029586
   21  H  5  S   -0.055006   0.079096  -0.691640   0.880837  -0.432647
   22  H  6  S   -0.036884   0.088499  -0.694336  -0.795436  -0.562839
   23  H  7  S   -0.037868  -0.202710  -0.703376  -0.057795   0.955663

                     21         22         23
                    0.6120     0.7616     0.9008
                     A          A          A   
    1  N  1  S    0.062714  -0.030999  -0.007662
    2  N  1  S   -0.379166   0.197745   0.045850
    3  N  1  X   -0.698801   0.344732   0.058885
    4  N  1  Y   -0.070290  -0.076284  -0.137403
    5  N  1  Z   -0.162095  -0.011539  -0.232020
    6  C  2  S   -0.210137  -0.108214   0.038831
    7  C  2  S    1.186388   0.734992  -0.222921
    8  C  2  X   -0.557695   1.015095  -0.045754
    9  C  2  Y    0.225444   0.316292   0.614447
   10  C  2  Z    0.053890   0.069968   1.044678
   11  CL 3  S   -0.015609  -0.022400  -0.016385
   12  CL 3  S    0.040353   0.053868   0.036145
   13  CL 3  X   -0.086909  -0.029991  -0.071421
   14  CL 3  Y   -0.059833  -0.108514  -0.073314
   15  CL 3  Z   -0.069494  -0.122765  -0.054831
   16  CL 3  S   -0.325868  -0.525416  -0.429144
   17  CL 3  X    0.377882   0.153697   0.341605
   18  CL 3  Y    0.264108   0.504183   0.360839
   19  CL 3  Z    0.305987   0.566540   0.279519
   20  H  4  S   -0.405049  -0.594785   1.004694
   21  H  5  S    0.048160   0.067538   0.140559
   22  H  6  S   -0.142902  -0.005822  -0.139057
   23  H  7  S   -0.131895   0.072725  -0.027506
 ...... END OF UHF CALCULATION ......
 STEP CPU TIME =     0.06 TOTAL CPU TIME =          0.1 (      0.0 MIN)
 TOTAL WALL CLOCK TIME=          0.2 SECONDS, CPU UTILIZATION IS    86.67%

     ----------------------------------------------------------------
     PROPERTY VALUES FOR THE UHF   SELF-CONSISTENT FIELD WAVEFUNCTION
     ----------------------------------------------------------------

          -----------------
          ENERGY COMPONENTS
          -----------------

         WAVEFUNCTION NORMALIZATION =       1.0000000000

                ONE ELECTRON ENERGY =    -973.9879957897
                TWO ELECTRON ENERGY =     317.5235372340
           NUCLEAR REPULSION ENERGY =     108.6754679248
                                      ------------------
                       TOTAL ENERGY =    -547.7889906309

 ELECTRON-ELECTRON POTENTIAL ENERGY =     317.5235372340
  NUCLEUS-ELECTRON POTENTIAL ENERGY =   -1514.2116281751
   NUCLEUS-NUCLEUS POTENTIAL ENERGY =     108.6754679248
                                      ------------------
             TOTAL POTENTIAL ENERGY =   -1088.0126230163
               TOTAL KINETIC ENERGY =     540.2236323854
                 VIRIAL RATIO (V/T) =       2.0140041231

          ---------------------------------------
          MULLIKEN AND LOWDIN POPULATION ANALYSES
          ---------------------------------------

     ATOMIC MULLIKEN POPULATION IN EACH MOLECULAR ORBITAL
        ALPHA ORBITALS

                      1          2          3          4          5

                  1.000000   1.000000   1.000000   1.000000   1.000000

    1            -0.000000   1.001307  -0.000264   0.000000   0.000001
    2             0.000009  -0.000236   1.001446  -0.001424  -0.000954
    3             0.999991   0.000001  -0.000686   1.001424   1.000953
    4             0.000000   0.000001  -0.000487   0.000001   0.000001
    5             0.000000  -0.000359  -0.000003  -0.000001  -0.000000
    6             0.000000  -0.000359  -0.000003  -0.000000  -0.000000
    7             0.000000  -0.000355  -0.000003  -0.000000  -0.000000

                      6          7          8          9         10

                  1.000000   1.000000   1.000000   1.000000   1.000000

    1             0.000000   0.000000   0.730004   0.042609   0.429666
    2            -0.000068  -0.000061   0.049517   0.203989   0.224093
    3             1.000067   1.000061   0.014931   0.728796   0.104338
    4             0.000001   0.000000   0.002299   0.010397   0.081771
    5            -0.000001  -0.000000   0.069265   0.002519   0.144504
    6            -0.000000   0.000000   0.067076   0.007287   0.014618
    7            -0.000000  -0.000000   0.066909   0.004404   0.001009

                     11         12         13         14         15

                  1.000000   1.000000   1.000000   1.000000   1.000000

    1             0.583102   0.526921   0.260540   0.019397   0.004655
    2             0.020829   0.085985   0.298301   0.286044   0.209981
    3             0.007952   0.108196   0.251252   0.530552   0.772017
    4             0.000046   0.007424   0.162970   0.145965   0.003558
    5             0.010300   0.109567   0.021350   0.008120   0.000371
    6             0.159659   0.102432   0.001355   0.008744   0.003904
    7             0.218113   0.059475   0.004233   0.001177   0.005515

                     16         17

                  1.000000   1.000000

    1             0.056468   0.001931
    2             0.031835   0.744836
    3             0.818430   0.220887
    4             0.087336   0.001748
    5             0.002944   0.003207
    6             0.001511   0.003925
    7             0.001476   0.023466

     ATOMIC MULLIKEN POPULATION IN EACH MOLECULAR ORBITAL
         BETA ORBITALS

                      1          2          3          4          5

                  1.000000   1.000000   1.000000   1.000000   1.000000

    1            -0.000000   1.001307  -0.000264   0.000000   0.000001
    2             0.000009  -0.000236   1.001446  -0.001424  -0.000954
    3             0.999991   0.000001  -0.000686   1.001424   1.000953
    4             0.000000   0.000001  -0.000487   0.000001   0.000001
    5             0.000000  -0.000359  -0.000003  -0.000001  -0.000000
    6             0.000000  -0.000359  -0.000003  -0.000000  -0.000000
    7             0.000000  -0.000355  -0.000003  -0.000000  -0.000000

                      6          7          8          9         10

                  1.000000   1.000000   1.000000   1.000000   1.000000

    1             0.000000   0.000000   0.730004   0.042609   0.429666
    2            -0.000068  -0.000061   0.049517   0.203989   0.224093
    3             1.000067   1.000061   0.014931   0.728796   0.104338
    4             0.000001   0.000000   0.002299   0.010397   0.081771
    5            -0.000001  -0.000000   0.069265   0.002519   0.144504
    6            -0.000000   0.000000   0.067076   0.007287   0.014618
    7            -0.000000  -0.000000   0.066909   0.004404   0.001009

                     11         12         13         14         15

                  1.000000   1.000000   1.000000   1.000000   1.000000

    1             0.583102   0.526921   0.260540   0.019397   0.004655
    2             0.020829   0.085985   0.298301   0.286044   0.209981
    3             0.007952   0.108196   0.251252   0.530552   0.772017
    4             0.000046   0.007424   0.162970   0.145965   0.003558
    5             0.010300   0.109567   0.021350   0.008120   0.000371
    6             0.159659   0.102432   0.001355   0.008744   0.003904
    7             0.218113   0.059475   0.004233   0.001177   0.005515

                     16         17

                  1.000000   1.000000

    1             0.056468   0.001931
    2             0.031835   0.744836
    3             0.818430   0.220887
    4             0.087336   0.001748
    5             0.002944   0.003207
    6             0.001511   0.003925
    7             0.001476   0.023466

     ATOMIC SPIN POPULATION (ALPHA MINUS BETA)
       ATOM         MULL.POP.                    LOW.POP.
    1 N             0.000000                     0.000000
    2 C             0.000000                     0.000000
    3 CL            0.000000                     0.000000
    4 H             0.000000                     0.000000
    5 H             0.000000                     0.000000
    6 H             0.000000                     0.000000
    7 H             0.000000                     0.000000


          ********* ALL ELECTRONS ********

               ----- POPULATIONS IN EACH AO -----
                             MULLIKEN      LOWDIN
              1  N  1  S      1.99497     1.99104
              2  N  1  S      1.55551     1.28766
              3  N  1  X      1.39600     1.37175
              4  N  1  Y      1.18221     1.18035
              5  N  1  Z      1.18399     1.18268
              6  C  2  S      1.99180     1.98377
              7  C  2  S      1.06733     1.02615
              8  C  2  X      0.52493     0.62202
              9  C  2  Y      1.56033     1.59915
             10  C  2  Z      1.16386     1.21299
             11  CL 3  S      1.99995     1.99982
             12  CL 3  S      1.99834     1.99879
             13  CL 3  X      1.99665     1.99453
             14  CL 3  Y      1.99521     1.99243
             15  CL 3  Z      1.99464     1.99152
             16  CL 3  S      1.91495     1.82349
             17  CL 3  X      1.80854     1.81073
             18  CL 3  Y      1.72078     1.72981
             19  CL 3  Z      1.68926     1.70197
             20  H  4  S      1.00606     1.02463
             21  H  5  S      0.74357     0.81667
             22  H  6  S      0.74030     0.81400
             23  H  7  S      0.77083     0.84406

          ----- MULLIKEN ATOMIC OVERLAP POPULATIONS -----
          (OFF-DIAGONAL ELEMENTS NEED TO BE MULTIPLIED BY 2)

             1           2           3           4           5

    1    6.1395220
    2    0.2466161   5.5093457
    3   -0.0307096   0.2175556  16.9590287
    4   -0.0270050   0.4006969  -0.0298711   0.6623081
    5    0.3303724  -0.0188832  -0.0003486   0.0018237   0.4826019
    6    0.3343694  -0.0205575   0.0012778  -0.0014490  -0.0219453
    7    0.3195101  -0.0265308   0.0013881  -0.0004387  -0.0300545

             6           7

    6    0.4793643
    7   -0.0307630   0.5377215

          TOTAL MULLIKEN AND LOWDIN ATOMIC POPULATIONS
       ATOM         MULL.POP.    CHARGE          LOW.POP.     CHARGE
    1 N             7.312675   -0.312675         7.013472   -0.013472
    2 C             6.308243   -0.308243         6.444073   -0.444073
    3 CL           17.118321   -0.118321        17.043099   -0.043099
    4 H             1.006065   -0.006065         1.024630   -0.024630
    5 H             0.743566    0.256434         0.816666    0.183334
    6 H             0.740297    0.259703         0.813996    0.186004
    7 H             0.770833    0.229167         0.844065    0.155935

          -------------------------------
          BOND ORDER AND VALENCE ANALYSIS     BOND ORDER THRESHOLD=0.050
          -------------------------------

                   BOND                       BOND                       BOND
  ATOM PAIR DIST  ORDER      ATOM PAIR DIST  ORDER      ATOM PAIR DIST  ORDER
    1   2  1.528  0.714        1   5  1.044  0.905        1   6  1.044  0.906
    1   7  1.046  0.891        2   3  1.500  1.031        2   4  1.089  0.964

                       TOTAL       BONDED        FREE
      ATOM            VALENCE     VALENCE     VALENCE
    1 N                 3.457       3.457      -0.000
    2 C                 2.759       2.759       0.000
    3 CL                1.092       1.092       0.000
    4 H                 1.000       1.000      -0.000
    5 H                 0.934       0.934      -0.000
    6 H                 0.933       0.933      -0.000
    7 H                 0.947       0.947      -0.000

          -----------------------------------------
          ATOMIC SPIN DENSITY AT THE NUCLEUS (A.U.)
          -----------------------------------------
                            SPIN DENS    ALPHA DENS     BETA DENS
    1  N            7.0     0.0000000      63.24436      63.24436
    2  C            6.0     0.0000000      38.54963      38.54963
    3  CL          17.0     0.0000000    1011.86136    1011.86136
    4  H            1.0     0.0000000       0.19323       0.19323
    5  H            1.0     0.0000000       0.15556       0.15556
    6  H            1.0     0.0000000       0.15523       0.15523
    7  H            1.0     0.0000000       0.16398       0.16398

          ---------------------
          ELECTROSTATIC MOMENTS
          ---------------------

 POINT   1           X           Y           Z (BOHR)    CHARGE
               -11.072319    6.210631    0.631289        0.00 (A.U.)
         DX          DY          DZ         /D/  (DEBYE)
    -6.144908   -0.557856   -1.445943    6.337338
 ...... END OF PROPERTY EVALUATION ......
 STEP CPU TIME =     0.03 TOTAL CPU TIME =          0.2 (      0.0 MIN)
 TOTAL WALL CLOCK TIME=          0.2 SECONDS, CPU UTILIZATION IS    94.12%
 TURNING OFF IN-CORE INTEGRALS...

     ---------------------------------------------
     1ST AND 2ND INTEGRAL DERIVATIVE CONTRIBUTIONS
     ---------------------------------------------
 ...... END OF 1-ELECTRON GRAD+HESS+FOCKDER ......
 STEP CPU TIME =     0.01 TOTAL CPU TIME =          0.2 (      0.0 MIN)
 TOTAL WALL CLOCK TIME=          0.2 SECONDS, CPU UTILIZATION IS    85.00%

     ----------------------------------------------
     TWO ELECTRON INTEGRAL DERIVATIVE CONTRIBUTIONS
     ----------------------------------------------

      22084 WORDS REQUIRED,    999422 WORDS AVAILABLE
 THE COARSE/FINE SCHWARZ SCREENINGS SKIPPED        222/        23 BLOCKS.
 THE NUMBER OF DERIVATIVE INTEGRAL BLOCKS COMPUTED WAS      1929
 STEP CPU TIME =     0.52 TOTAL CPU TIME =          0.7 (      0.0 MIN)
 TOTAL WALL CLOCK TIME=          0.7 SECONDS, CPU UTILIZATION IS    97.18%
 ...... END OF 2-ELECTRON GRAD+HESS+FOCKDER ......
 STEP CPU TIME =     0.00 TOTAL CPU TIME =          0.7 (      0.0 MIN)
 TOTAL WALL CLOCK TIME=          0.7 SECONDS, CPU UTILIZATION IS    97.18%

     -----------------------------------------
     COUPLED-PERTURBED OPEN SHELL HARTREE-FOCK
     -----------------------------------------
 THE CPHF HAS     102 INDEPENDENT ORBITAL ROTATIONS.
 SOLVING FOR   21 NUCLEAR RESPONSES AND 0 ELECTRIC FIELD RESPONSES
           -FA- WILL USE     19210 WORDS,
           -TA- WILL USE     28421 WORDS,
          -FCK- WILL USE    117654 WORDS,
 -WXY- AND -YA- WILL USE     91964 WORDS,
               THERE ARE    999422 WORDS OF REPLICATED MEMORY AVAILABLE.
        TIME FOR -FA-   =        0.000
        TIME FOR -TA-   =        0.010
        TIME FOR -FCK-  =        0.010
 PRECONDITIONED CONJUGATE GRADIENT SOLVER     CONV. TOLERANCE=5.00E-05
             MAXIMUM          RESPONSES        NONZERO     BLOCKS
 ITER    RESPONSE ERROR        IMPROVED   AO INTEGRALS    SKIPPED
   1       3.91592E-01            21             35318        240
   2       1.18662E-01            21             35216        253
   3       3.86330E-02            21             35100        274
   4       7.96882E-03            21             34949        299
   5       1.97576E-03            21             34520        334
   6       4.19018E-04            21             34105        374
   7       9.66210E-05            21             33285        435
   8       2.19113E-05             9             31612        587
 THE CPHF HAS CONVERGED AFTER  8 ITERATIONS.
 IT REQUIRED   312 FOCK-LIKE BUILDS TO FIND THE  21 SYMMETRY UNIQUE RESPONSES.
        TIME FOR -YA-   =        0.100
 ...... DONE WITH CPHF CONTRIBUTIONS ......
 STEP CPU TIME =     0.12 TOTAL CPU TIME =          0.8 (      0.0 MIN)
 TOTAL WALL CLOCK TIME=          0.8 SECONDS, CPU UTILIZATION IS    96.43%

          PARAMETERS CONTROLLING GEOMETRY SEARCH ARE
          METHOD =QA                  UPHESS =POWELL  
          NNEG   =         1          NFRZ   =         0
          NSTEP  =        50          IFOLOW =         1
          HESS   =CALC                RESTAR =         F
          IHREP  =         5          HSSEND =         T
          NPRT   =         0          NPUN   =         0
          OPTTOL = 5.000E-04          RMIN   = 1.500E-03
          RMAX   = 1.000E-01          RLIM   = 7.000E-02
          DXMAX  = 2.000E-01          PURIFY =         F
          MOVIE  =         F          TRUPD  =         T
          TRMAX  = 3.000E-01          TRMIN  = 5.000E-02
          ITBMAT =         5          STPT   =         F
          STSTEP = 1.000E-02          PROJCT=          T

 THE GRADIENT AT THE INITIAL GEOMETRY IS KNOWN.
 PROCEEDING DIRECTLY TO THE GEOMETRY SEARCH...

          NSERCH=  0     ENERGY=    -547.7889906

                                 -----------------------
                                 GRADIENT (HARTREE/BOHR)
                                 -----------------------
        ATOM     ZNUC       DE/DX         DE/DY         DE/DZ
 --------------------------------------------------------------
    1  N            7.0    -0.0128120    -0.0140484     0.0081599
    2  C            6.0     0.1200851     0.2535893     0.2075863
    3  CL          17.0    -0.1345508    -0.2161284    -0.2035125
    4  H            1.0     0.0162746    -0.0186811    -0.0139154
    5  H            1.0    -0.0025618     0.0006748     0.0065984
    6  H            1.0    -0.0020496    -0.0073578    -0.0025697
    7  H            1.0     0.0156143     0.0019515    -0.0023470

          MAXIMUM GRADIENT = 0.2535893    RMS GRADIENT = 0.1045756

 NSERCH:   0  E=     -547.7889906309  GRAD. MAX=  0.2535893  R.M.S.=  0.1045756

          FORCE CONSTANT MATRIX NOT UPDATED --- TAKING FIRST STEP
          THE FIRST FEW LOCAL MODES AND EIGENVALUES ARE

  MODE           1           2           3           4           5
         -0.264071   -0.052680   -0.000039    0.070694    0.082602
  MODE
   1     -0.022472   -0.064959    0.033334    0.013898    0.057869
   2      0.021253    0.056789    0.009060   -0.128610    0.161372
   3     -0.012266    0.025747   -0.003624    0.204095    0.006503
   4      0.134749   -0.263833   -0.018989    0.083801   -0.096256
   5     -0.670416    0.133395    0.176610    0.149585   -0.107635
   6      0.456072    0.231336   -0.134538   -0.106438    0.023993
   7     -0.100164    0.661236   -0.159311   -0.050450   -0.260617
   8      0.320139   -0.029822    0.295292    0.134723   -0.086675
   9     -0.317248   -0.237392   -0.171793   -0.019031    0.103768
  10     -0.041701   -0.159186    0.118518   -0.309846   -0.470932
  11      0.188149    0.047876   -0.571878   -0.025561   -0.194589
  12     -0.062979    0.271920    0.237161   -0.206180   -0.118813
  13     -0.014225   -0.315312    0.073778   -0.464664    0.135781
  14     -0.094821   -0.182778   -0.315748   -0.109794    0.140896
  15     -0.007829   -0.071169    0.062212    0.014061    0.039450
  16     -0.027851    0.267197   -0.003686    0.020059    0.728540
  17      0.091703    0.001460    0.161841   -0.058640   -0.003559
  18     -0.135440   -0.159976   -0.320745    0.039263   -0.029018
  19      0.071664   -0.125142   -0.043644    0.707201   -0.094385
  20      0.143992   -0.026919    0.244823    0.038298    0.090190
  21      0.079688   -0.060465    0.331327    0.074229   -0.025883

  MODE           6           7           8           9          10
          0.116884    0.177230    0.185943    0.217292    0.332203
  MODE
   1     -0.010437   -0.080047    0.098205    0.213102    0.531833
   2      0.104067    0.139223    0.275461   -0.123000    0.021314
   3      0.078469   -0.209699    0.022367   -0.254232    0.075314
   4      0.279165   -0.263445    0.306015    0.267759   -0.330918
   5     -0.133205   -0.032697    0.024327    0.103501   -0.065079
   6     -0.142324   -0.064886    0.065086    0.159839   -0.078934
   7      0.003994   -0.090090    0.053811    0.168621   -0.188443
   8     -0.070376   -0.101807    0.102045    0.155123   -0.134846
   9     -0.015009   -0.131423    0.190650    0.214908   -0.190604
  10      0.393254    0.134084   -0.163186   -0.382651   -0.017959
  11     -0.105121    0.077499   -0.160065   -0.076889    0.125192
  12     -0.217618    0.098773   -0.141704   -0.010806    0.139871
  13     -0.586533    0.079306   -0.043586    0.074253   -0.034364
  14      0.106428   -0.360492   -0.498672    0.047757   -0.035390
  15     -0.144817   -0.150972    0.046063   -0.524322   -0.333569
  16      0.245391    0.074928   -0.098855   -0.180575   -0.015307
  17      0.013742   -0.224609    0.391003   -0.233136    0.410167
  18      0.189255    0.538934    0.240666    0.111613    0.164437
  19     -0.324835    0.145264   -0.152403   -0.160510    0.055158
  20      0.084465    0.502883   -0.134099    0.126643   -0.321358
  21      0.252043   -0.080727   -0.423127    0.303001    0.223485
 LOCAL CURVATURE   2 OF THE APPROXIMATE HESSIAN HAS EIGENVALUE=   -0.052680
 *** THIS MODE HAS AN INCORRECT CURVATURE ***
 THE COMPONENTS OF THIS MODE FOLLOWS:
       -0.064959       0.056789       0.025747      -0.263833       0.133395
        0.231336       0.661236      -0.029822      -0.237392      -0.159186
        0.047876       0.271920      -0.315312      -0.182778      -0.071169
        0.267197       0.001460      -0.159976      -0.125142      -0.026919
       -0.060465
 LOCAL CURVATURE   3 OF THE APPROXIMATE HESSIAN HAS EIGENVALUE=   -0.000039
 *** THIS MODE HAS AN INCORRECT CURVATURE ***
 THE COMPONENTS OF THIS MODE FOLLOWS:
        0.033334       0.009060      -0.003624      -0.018989       0.176610
       -0.134538      -0.159311       0.295292      -0.171793       0.118518
       -0.571878       0.237161       0.073778      -0.315748       0.062212
       -0.003686       0.161841      -0.320745      -0.043644       0.244823
        0.331327
          HESSIAN MODE FOLLOWING SWITCHED ON, FOLLOWING MODE   1
          FOLLOWING MODE  1 WITH EIGENVALUE   -0.26407 AND COMPONENTS
             -0.02247  0.02125 -0.01227  0.13475 -0.67042  0.45607
             -0.10016  0.32014 -0.31725 -0.04170  0.18815 -0.06298
             -0.01422 -0.09482 -0.00783 -0.02785  0.09170 -0.13544
              0.07166  0.14399  0.07969
          TRIM/QA LAMBDA FOR     TS MODE  =   0.49945211
          TRIM/QA LAMBDA FOR NON-TS MODES =  -0.49945211
          TRIM/QA STEP HAS LENGTH         =   0.200000
          RADIUS OF STEP TAKEN=   0.20000  CURRENT TRUST RADIUS=   0.20000

 BEGINNING GEOMETRY SEARCH POINT NSERCH=   1 ...

 COORDINATES OF ALL ATOMS ARE (ANGS)
   ATOM   CHARGE       X              Y              Z
 ------------------------------------------------------------
 N           7.0  -7.3199125721   2.7630167104  -0.2247914128
 C           6.0  -5.8261791436   2.7713907467  -0.2033842000
 CL         17.0  -5.1142935578   3.7649010187   0.8772418769
 H           1.0  -5.3729267710   2.4268749015  -1.0894228621
 H           1.0  -7.7461397804   2.8714294247   0.7246128094
 H           1.0  -7.6449813829   1.8431384786  -0.5957815612
 H           1.0  -7.7404765422   3.5031196394  -0.8312497301

          INTERNUCLEAR DISTANCES (ANGS.)
          ------------------------------

                1 N          2 C          3 CL         4 H          5 H     

   1 N       0.0000000    1.4939103 *  2.6613915 *  2.1566948 *  1.0463228 *
   2 C       1.4939103 *  0.0000000    1.6314400 *  1.0531825 *  2.1348150 *
   3 CL      2.6613915 *  1.6314400 *  0.0000000    2.3926920 *  2.7835592 *
   4 H       2.1566948 *  1.0531825 *  2.3926920 *  0.0000000    3.0200156  
   5 H       1.0463228 *  2.1348150 *  2.7835592 *  3.0200156    0.0000000  
   6 H       1.0437813 *  2.0793435 *  3.5024777    2.3972197 *  1.6766206 *
   7 H       1.0451881 *  2.1434031 *  3.1439323    2.6134743 *  1.6792179 *

                6 H          7 H     

   1 N       1.0437813 *  1.0451881 *
   2 C       2.0793435 *  2.1434031 *
   3 CL      3.5024777    3.1439323  
   4 H       2.3972197 *  2.6134743 *
   5 H       1.6766206 *  1.6792179 *
   6 H       0.0000000    1.6793159 *
   7 H       1.6793159 *  0.0000000  

  * ... LESS THAN  3.000

 ...... END OF ONE-ELECTRON INTEGRALS ......
 STEP CPU TIME =     0.01 TOTAL CPU TIME =          0.8 (      0.0 MIN)
 TOTAL WALL CLOCK TIME=          0.8 SECONDS, CPU UTILIZATION IS    97.62%
  ...... END OF TWO-ELECTRON INTEGRALS .....
 STEP CPU TIME =     0.01 TOTAL CPU TIME =          0.8 (      0.0 MIN)
 TOTAL WALL CLOCK TIME=          0.8 SECONDS, CPU UTILIZATION IS    97.65%

          ---------------------------
                  UHF SCF CALCULATION
          ---------------------------
     DENSITY MATRIX CONV=  2.00E-05

 DIRECT SCF CALCULATION, SCHWRZ=T   FDIFF=T

                                                                                NONZERO     BLOCKS
 ITER EX      TOTAL ENERGY        E CHANGE  DENSITY CHANGE    ORB. GRAD       INTEGRALS    SKIPPED
          ---------------START SECOND ORDER SCF---------------
   1  0     -547.8393745024  -547.8393745024   0.038285801   0.014602829          35293        218
   2  1     -547.8418533075    -0.0024788051   0.008801221   0.003131633          35066        277
   3  2     -547.8420072026    -0.0001538950   0.002321285   0.000677108          34873        299
   4  3     -547.8420144140    -0.0000072114   0.000891898   0.000245220          34516        332
   5  4     -547.8420151152    -0.0000007012   0.000114418   0.000037934          34010        370
   6  5     -547.8420151423    -0.0000000271   0.000062668   0.000016365          33260        433
   7  6     -547.8420151455    -0.0000000032   0.000024749   0.000006846          32947        464
   8  7     -547.8420151458    -0.0000000003   0.000009566   0.000002191          32158        539
   9  8     -547.8420151459    -0.0000000001   0.000001495   0.000000549          31516        617

          -----------------
          DENSITY CONVERGED
          -----------------
     TIME TO FORM FOCK OPERATORS=       0.1 SECONDS (       0.0 SEC/ITER)
     FOCK TIME ON FIRST ITERATION=       0.0, LAST ITERATION=       0.0
     TIME TO SOLVE SCF EQUATIONS=       0.0 SECONDS (       0.0 SEC/ITER)

 FINAL UHF ENERGY IS     -547.8420151459 AFTER   9 ITERATIONS

          --------------------
          SPIN SZ   =    0.000
          S-SQUARED =   -0.000
          --------------------
 ...... END OF UHF CALCULATION ......
 STEP CPU TIME =     0.10 TOTAL CPU TIME =          0.9 (      0.0 MIN)
 TOTAL WALL CLOCK TIME=          0.9 SECONDS, CPU UTILIZATION IS    97.89%
 ..... END OF 1-ELECTRON GRADIENT ......
 STEP CPU TIME =     0.00 TOTAL CPU TIME =          0.9 (      0.0 MIN)
 TOTAL WALL CLOCK TIME=          0.9 SECONDS, CPU UTILIZATION IS    97.89%
 ...... END OF 2-ELECTRON GRADIENT ......
 STEP CPU TIME =     0.02 TOTAL CPU TIME =          0.9 (      0.0 MIN)
 TOTAL WALL CLOCK TIME=          1.0 SECONDS, CPU UTILIZATION IS    97.94%

          NSERCH=  1     ENERGY=    -547.8420151

                                 -----------------------
                                 GRADIENT (HARTREE/BOHR)
                                 -----------------------
        ATOM     ZNUC       DE/DX         DE/DY         DE/DZ
 --------------------------------------------------------------
    1  N            7.0    -0.0026136    -0.0069331     0.0093349
    2  C            6.0     0.0385398     0.1080981     0.0489559
    3  CL          17.0    -0.0482177    -0.0842094    -0.0761633
    4  H            1.0     0.0031075    -0.0090473     0.0134056
    5  H            1.0    -0.0066582     0.0000982     0.0059781
    6  H            1.0     0.0007051    -0.0067453    -0.0009451
    7  H            1.0     0.0151371    -0.0012611    -0.0005660

          MAXIMUM GRADIENT = 0.1080981    RMS GRADIENT = 0.0387639

 NSERCH:   1  E=     -547.8420151459  GRAD. MAX=  0.1080981  R.M.S.=  0.0387639

          HESSIAN UPDATED USING THE POWELL FORMULA
 LOCAL CURVATURE   2 OF THE APPROXIMATE HESSIAN HAS EIGENVALUE=   -0.047681
 *** THIS MODE HAS AN INCORRECT CURVATURE ***
 THE COMPONENTS OF THIS MODE FOLLOWS:
       -0.060332       0.070043       0.010997      -0.239964       0.058311
        0.288509       0.655030      -0.039736      -0.219822      -0.170852
        0.112236       0.249717      -0.311332      -0.153669      -0.091952
        0.282573      -0.001343      -0.138728      -0.155122      -0.045841
       -0.098721
             ACTUAL ENERGY CHANGE WAS  -0.0530245150
          PREDICTED ENERGY CHANGE WAS  -0.0483716864 RATIO=  1.096
          OVERLAP OF CURRENT MODE   1 WITH PREVIOUS MODE IS     0.979319
          FOLLOWING MODE  1 WITH EIGENVALUE   -0.19184 AND COMPONENTS
              0.00425  0.04638 -0.04073  0.17711 -0.71269  0.45623
             -0.13211  0.26234 -0.22888 -0.05291  0.23467 -0.12046
              0.04318 -0.04437 -0.03044 -0.02820  0.09561 -0.08223
             -0.01132  0.11805  0.04651
          TRIM/QA LAMBDA FOR     TS MODE  =   0.06021666
          TRIM/QA LAMBDA FOR NON-TS MODES =  -0.06021666
          TRIM/QA STEP HAS LENGTH         =   0.300000
          RADIUS OF STEP TAKEN=   0.30000  CURRENT TRUST RADIUS=   0.30000

 BEGINNING GEOMETRY SEARCH POINT NSERCH=   2 ...

 COORDINATES OF ALL ATOMS ARE (ANGS)
   ATOM   CHARGE       X              Y              Z
 ------------------------------------------------------------
 N           7.0  -7.3193992441   2.7660748518  -0.2371863088
 C           6.0  -5.8409049824   2.8213788128  -0.2701369666
 CL         17.0  -5.0907333517   3.7428775302   0.9704026630
 H           1.0  -5.3536273769   2.4085043701  -1.1111988867
 H           1.0  -7.7208269213   2.9037278074   0.7194827126
 H           1.0  -7.6535850693   1.8286857333  -0.5585051044
 H           1.0  -7.7858328042   3.4726218144  -0.8556331893

          INTERNUCLEAR DISTANCES (ANGS.)
          ------------------------------

                1 N          2 C          3 CL         4 H          5 H     

   1 N       0.0000000    1.4798951 *  2.7164989 *  2.1808287 *  1.0465697 *
   2 C       1.4798951 *  0.0000000    1.7178056 *  1.0560729 *  2.1260844 *
   3 CL      2.7164989 *  1.7178056 *  0.0000000    2.4865096 *  2.7720976 *
   4 H       2.1808287 *  1.0560729 *  2.4865096 *  0.0000000    3.0331955  
   5 H       1.0465697 *  2.1260844 *  2.7720976 *  3.0331955    0.0000000  
   6 H       1.0457649 *  2.0867211 *  3.5454052    2.4354600 *  1.6713736 *
   7 H       1.0484491 *  2.1329950 *  3.2666506    2.6670739 *  1.6759643 *

                6 H          7 H     

   1 N       1.0457649 *  1.0484491 *
   2 C       2.0867211 *  2.1329950 *
   3 CL      3.5454052    3.2666506  
   4 H       2.4354600 *  2.6670739 *
   5 H       1.6713736 *  1.6759643 *
   6 H       0.0000000    1.6757984 *
   7 H       1.6757984 *  0.0000000  

  * ... LESS THAN  3.000

 ...... END OF ONE-ELECTRON INTEGRALS ......
 STEP CPU TIME =     0.01 TOTAL CPU TIME =          1.0 (      0.0 MIN)
 TOTAL WALL CLOCK TIME=          1.0 SECONDS, CPU UTILIZATION IS    97.96%
  ...... END OF TWO-ELECTRON INTEGRALS .....
 STEP CPU TIME =     0.01 TOTAL CPU TIME =          1.0 (      0.0 MIN)
 TOTAL WALL CLOCK TIME=          1.0 SECONDS, CPU UTILIZATION IS    97.98%

          ---------------------------
                  UHF SCF CALCULATION
          ---------------------------
     DENSITY MATRIX CONV=  2.00E-05

 DIRECT SCF CALCULATION, SCHWRZ=T   FDIFF=T

                                                                                NONZERO     BLOCKS
 ITER EX      TOTAL ENERGY        E CHANGE  DENSITY CHANGE    ORB. GRAD       INTEGRALS    SKIPPED
          ---------------START SECOND ORDER SCF---------------
   1  0     -547.8420707493  -547.8420707493   0.072890645   0.018805374          35218        222
   2  1     -547.8478502894    -0.0057795401   0.054343047   0.009077489          34851        285
   3  2     -547.8489464576    -0.0010961682   0.005155815   0.001554226          34775        295
   4  3     -547.8489724101    -0.0000259524   0.004693828   0.000854547          34203        342
   5  4     -547.8489793057    -0.0000068956   0.000677940   0.000127189          34023        356
   6  5     -547.8489796115    -0.0000003058   0.000334460   0.000061325          33461        403
   7  6     -547.8489796852    -0.0000000737   0.000062142   0.000015378          33358        413
   8  7     -547.8489796885    -0.0000000033   0.000039932   0.000007481          32507        499
   9  8     -547.8489796892    -0.0000000007   0.000007496   0.000001719          32181        540
  10  9     -547.8489796892    -0.0000000000   0.000002252   0.000000446          30694        677

          -----------------
          DENSITY CONVERGED
          -----------------
     TIME TO FORM FOCK OPERATORS=       0.1 SECONDS (       0.0 SEC/ITER)
     FOCK TIME ON FIRST ITERATION=       0.0, LAST ITERATION=       0.0
     TIME TO SOLVE SCF EQUATIONS=       0.0 SECONDS (       0.0 SEC/ITER)

 FINAL UHF ENERGY IS     -547.8489796892 AFTER  10 ITERATIONS

          --------------------
          SPIN SZ   =    0.000
          S-SQUARED =   -0.000
          --------------------
 ...... END OF UHF CALCULATION ......
 STEP CPU TIME =     0.13 TOTAL CPU TIME =          1.1 (      0.0 MIN)
 TOTAL WALL CLOCK TIME=          1.2 SECONDS, CPU UTILIZATION IS    93.22%
 ..... END OF 1-ELECTRON GRADIENT ......
 STEP CPU TIME =     0.01 TOTAL CPU TIME =          1.1 (      0.0 MIN)
 TOTAL WALL CLOCK TIME=          1.2 SECONDS, CPU UTILIZATION IS    93.28%
 ...... END OF 2-ELECTRON GRADIENT ......
 STEP CPU TIME =     0.01 TOTAL CPU TIME =          1.1 (      0.0 MIN)
 TOTAL WALL CLOCK TIME=          1.2 SECONDS, CPU UTILIZATION IS    93.33%

          NSERCH=  2     ENERGY=    -547.8489797

                                 -----------------------
                                 GRADIENT (HARTREE/BOHR)
                                 -----------------------
        ATOM     ZNUC       DE/DX         DE/DY         DE/DZ
 --------------------------------------------------------------
    1  N            7.0     0.0009228    -0.0027386     0.0074432
    2  C            6.0     0.0023485     0.0365097     0.0089520
    3  CL          17.0    -0.0117521    -0.0237322    -0.0235668
    4  H            1.0     0.0028471    -0.0045477     0.0045629
    5  H            1.0    -0.0071964    -0.0002144     0.0051363
    6  H            1.0     0.0010855    -0.0058501    -0.0004068
    7  H            1.0     0.0117445     0.0005733    -0.0021208

          MAXIMUM GRADIENT = 0.0365097    RMS GRADIENT = 0.0120421

 NSERCH:   2  E=     -547.8489796892  GRAD. MAX=  0.0365097  R.M.S.=  0.0120421

          HESSIAN UPDATED USING THE POWELL FORMULA
 LOCAL CURVATURE   2 OF THE APPROXIMATE HESSIAN HAS EIGENVALUE=   -0.042981
 *** THIS MODE HAS AN INCORRECT CURVATURE ***
 THE COMPONENTS OF THIS MODE FOLLOWS:
       -0.066770       0.069759       0.013101      -0.215861      -0.043661
        0.358483       0.625900      -0.059051      -0.229276      -0.170355
        0.209668       0.210459      -0.330228      -0.099743      -0.098137
        0.265463      -0.017378      -0.101402      -0.108149      -0.059594
       -0.153229
             ACTUAL ENERGY CHANGE WAS  -0.0069645433
          PREDICTED ENERGY CHANGE WAS  -0.0055958365 RATIO=  1.245
          OVERLAP OF CURRENT MODE   1 WITH PREVIOUS MODE IS     0.975876
          FOLLOWING MODE  1 WITH EIGENVALUE   -0.13278 AND COMPONENTS
             -0.00457 -0.03540  0.03457 -0.20857  0.71023 -0.42052
              0.21879 -0.18732  0.17965  0.01562 -0.30482  0.19580
             -0.08372 -0.02732  0.00764  0.07334 -0.06208  0.01032
             -0.01089 -0.09329 -0.00746
          TRIM/QA LAMBDA FOR     TS MODE  =   0.04862822
          TRIM/QA LAMBDA FOR NON-TS MODES =  -0.04862822
          TRIM/QA STEP HAS LENGTH         =   0.300000
          RADIUS OF STEP TAKEN=   0.30000  CURRENT TRUST RADIUS=   0.30000

 BEGINNING GEOMETRY SEARCH POINT NSERCH=   3 ...

 COORDINATES OF ALL ATOMS ARE (ANGS)
   ATOM   CHARGE       X              Y              Z
 ------------------------------------------------------------
 N           7.0  -7.3108782828   2.7661404844  -0.2546222977
 C           6.0  -5.8219779607   2.8646887425  -0.3385370076
 CL         17.0  -5.1333909041   3.7411109020   1.0392777322
 H           1.0  -5.3250327453   2.3537297151  -1.1225183995
 H           1.0  -7.6602331487   2.9202109537   0.7198550751
 H           1.0  -7.6796006072   1.8335331022  -0.5440656209
 H           1.0  -7.8337961011   3.4644570200  -0.8421645618

          INTERNUCLEAR DISTANCES (ANGS.)
          ------------------------------

                1 N          2 C          3 CL         4 H          5 H     

   1 N       0.0000000    1.4945158 *  2.7140737 *  2.2061072 *  1.0466101 *
   2 C       1.4945158 *  0.0000000    1.7721855 *  1.0595567 *  2.1218998 *
   3 CL      2.7140737 *  1.7721855 *  0.0000000    2.5758330 *  2.6759745 *
   4 H       2.2061072 *  1.0595567 *  2.5758330 *  0.0000000    3.0279369  
   5 H       1.0466101 *  2.1218998 *  2.6759745 *  3.0279369    0.0000000  
   6 H       1.0437864 *  2.1345458 *  3.5537323    2.4797584 *  1.6669551 *
   7 H       1.0518056 *  2.1588828 *  3.3028095    2.7579353 *  1.6631997 *

                6 H          7 H     

   1 N       1.0437864 *  1.0518056 *
   2 C       2.1345458 *  2.1588828 *
   3 CL      3.5537323    3.3028095  
   4 H       2.4797584 *  2.7579353 *
   5 H       1.6669551 *  1.6631997 *
   6 H       0.0000000    1.6650982 *
   7 H       1.6650982 *  0.0000000  

  * ... LESS THAN  3.000

 ...... END OF ONE-ELECTRON INTEGRALS ......
 STEP CPU TIME =     0.02 TOTAL CPU TIME =          1.1 (      0.0 MIN)
 TOTAL WALL CLOCK TIME=          1.2 SECONDS, CPU UTILIZATION IS    94.21%
  ...... END OF TWO-ELECTRON INTEGRALS .....
 STEP CPU TIME =     0.00 TOTAL CPU TIME =          1.1 (      0.0 MIN)
 TOTAL WALL CLOCK TIME=          1.2 SECONDS, CPU UTILIZATION IS    93.44%

          ---------------------------
                  UHF SCF CALCULATION
          ---------------------------
     DENSITY MATRIX CONV=  2.00E-05

 DIRECT SCF CALCULATION, SCHWRZ=T   FDIFF=T

                                                                                NONZERO     BLOCKS
 ITER EX      TOTAL ENERGY        E CHANGE  DENSITY CHANGE    ORB. GRAD       INTEGRALS    SKIPPED
          ---------------START SECOND ORDER SCF---------------
   1  0     -547.8434332496  -547.8434332496   0.080902024   0.018192595          35029        228
   2  1     -547.8491434264    -0.0057101768   0.055510740   0.005637190          34732        293
   3  2     -547.8501734762    -0.0010300499   0.004308865   0.001080497          34666        302
   4  3     -547.8501910866    -0.0000176104   0.004058758   0.000649383          33961        355
   5  4     -547.8501961820    -0.0000050954   0.000617192   0.000110386          33950        360
   6  5     -547.8501964225    -0.0000002405   0.000328002   0.000052188          33422        403
   7  6     -547.8501964862    -0.0000000637   0.000062465   0.000015903          33374        415
   8  7     -547.8501964896    -0.0000000034   0.000043790   0.000007783          32339        514
   9  8     -547.8501964903    -0.0000000007   0.000008232   0.000001824          32087        544
  10  9     -547.8501964904    -0.0000000001   0.000002540   0.000000503          30721        665

          -----------------
          DENSITY CONVERGED
          -----------------
     TIME TO FORM FOCK OPERATORS=       0.1 SECONDS (       0.0 SEC/ITER)
     FOCK TIME ON FIRST ITERATION=       0.0, LAST ITERATION=       0.0
     TIME TO SOLVE SCF EQUATIONS=       0.0 SECONDS (       0.0 SEC/ITER)

 FINAL UHF ENERGY IS     -547.8501964904 AFTER  10 ITERATIONS

          --------------------
          SPIN SZ   =    0.000
          S-SQUARED =   -0.000
          --------------------
 ...... END OF UHF CALCULATION ......
 STEP CPU TIME =     0.10 TOTAL CPU TIME =          1.2 (      0.0 MIN)
 TOTAL WALL CLOCK TIME=          1.3 SECONDS, CPU UTILIZATION IS    94.66%
 ..... END OF 1-ELECTRON GRADIENT ......
 STEP CPU TIME =     0.00 TOTAL CPU TIME =          1.2 (      0.0 MIN)
 TOTAL WALL CLOCK TIME=          1.3 SECONDS, CPU UTILIZATION IS    93.94%
 ...... END OF 2-ELECTRON GRADIENT ......
 STEP CPU TIME =     0.02 TOTAL CPU TIME =          1.3 (      0.0 MIN)
 TOTAL WALL CLOCK TIME=          1.3 SECONDS, CPU UTILIZATION IS    94.74%

          NSERCH=  3     ENERGY=    -547.8501965

                                 -----------------------
                                 GRADIENT (HARTREE/BOHR)
                                 -----------------------
        ATOM     ZNUC       DE/DX         DE/DY         DE/DZ
 --------------------------------------------------------------
    1  N            7.0     0.0014878    -0.0025620     0.0018988
    2  C            6.0     0.0038216    -0.0048002    -0.0029603
    3  CL          17.0    -0.0001868     0.0039470     0.0035067
    4  H            1.0    -0.0000831     0.0010297    -0.0052304
    5  H            1.0    -0.0063078     0.0010671     0.0048556
    6  H            1.0    -0.0013001    -0.0010835     0.0000172
    7  H            1.0     0.0025684     0.0024019    -0.0020875

          MAXIMUM GRADIENT = 0.0063078    RMS GRADIENT = 0.0030800

 NSERCH:   3  E=     -547.8501964904  GRAD. MAX=  0.0063078  R.M.S.=  0.0030800

          HESSIAN UPDATED USING THE POWELL FORMULA
             ACTUAL ENERGY CHANGE WAS  -0.0012168012
          PREDICTED ENERGY CHANGE WAS  -0.0023636020 RATIO=  0.515
          OVERLAP OF CURRENT MODE   1 WITH PREVIOUS MODE IS     0.991473
          FOLLOWING MODE  1 WITH EIGENVALUE   -0.16876 AND COMPONENTS
             -0.00305  0.02668 -0.00672  0.20668 -0.70071  0.43118
             -0.16422  0.18436 -0.19710 -0.04504  0.33972 -0.21491
              0.00010  0.01197  0.00314 -0.04984  0.04894 -0.01173
              0.05536  0.08904 -0.00386
          TS SEARCH, CORRECT HESSIAN, TRYING PURE NR STEP
               NR STEP HAS LENGTH         =   0.529765
          TRIM/QA LAMBDA FOR     TS MODE  =   0.00487017
          TRIM/QA LAMBDA FOR NON-TS MODES =  -0.00487017
          TRIM/QA STEP HAS LENGTH         =   0.300000
          RADIUS OF STEP TAKEN=   0.30000  CURRENT TRUST RADIUS=   0.30000

 BEGINNING GEOMETRY SEARCH POINT NSERCH=   4 ...

 COORDINATES OF ALL ATOMS ARE (ANGS)
   ATOM   CHARGE       X              Y              Z
 ------------------------------------------------------------
 N           7.0  -7.3180798206   2.7875524071  -0.2724269002
 C           6.0  -5.8556185211   2.8446898586  -0.2775733163
 CL         17.0  -5.0530046118   3.7408221245   1.0047859211
 H           1.0  -5.3277472425   2.3628031487  -1.0708006500
 H           1.0  -7.6599948267   2.8992136072   0.7024319268
 H           1.0  -7.6432171483   1.8444925814  -0.5756581686
 H           1.0  -7.9072475788   3.4642971924  -0.8535338927

          INTERNUCLEAR DISTANCES (ANGS.)
          ------------------------------

                1 N          2 C          3 CL         4 H          5 H     

   1 N       0.0000000    1.4635861 *  2.7695778 *  2.1861465 *  1.0390976 *
   2 C       1.4635861 *  0.0000000    1.7583195 *  1.0677418 *  2.0540587 *
   3 CL      2.7695778 *  1.7583195 *  0.0000000    2.5064875 *  2.7561061 *
[...]
                   Z-0.020256 0.046348-0.013409 0.015894-0.028541 0.013790

                                   7
                               H         
                          X        Y        Z
  7   H            X 0.154906-0.158456 0.052423
                   Y-0.158456 0.384598-0.121893
                   Z 0.052423-0.121893 0.127620

          ------------------------          ----------------
          DIPOLE DERIVATIVE TENSOR          (DEBYE/ANGSTROM)
          ------------------------          ----------------

        ATOM                 MU-X           MU-Y           MU-Z
     N          D/DX     1.258609522   -0.646161843   -0.498905662
                D/DY    -0.751006483   -0.244271857   -1.738072591
                D/DZ    -0.584171003   -1.736251468    0.385612451
     C          D/DX     1.141362043    1.667831506    1.131471125
                D/DY     1.050184334   -1.109308257    3.751652371
                D/DZ     0.640883340    3.725575114   -2.433958765
     CL         D/DX    -2.172848366   -0.247859528   -0.130637532
                D/DY    -0.711851031   -1.735024201   -1.268961142
                D/DZ    -0.529610845   -1.286527346   -1.278517959
     H          D/DX    -0.648880888   -0.706232037   -0.499947731
                D/DY    -0.409551498    0.474875020   -1.139460114
                D/DZ    -0.252350083   -1.129365301    0.887460770
     H          D/DX    -0.186739613   -0.025130071    0.406597411
                D/DY     0.062954518    0.858972734    0.151005828
                D/DZ     0.765849270    0.254777873    0.581910917
     H          D/DX     0.873286923   -0.407456732   -0.340495904
                D/DY     0.005996512    1.058111952   -0.007485127
                D/DZ     0.004974097    0.006903646    1.078355698
     H          D/DX    -0.264803269    0.364963041   -0.068086891
                D/DY     0.753263216    0.696673055    0.251331414
                D/DZ    -0.045586183    0.164918087    0.779181849

          --------------------------------------------------------
          NORMAL COORDINATE ANALYSIS IN THE HARMONIC APPROXIMATION
          --------------------------------------------------------

          ATOMIC WEIGHTS (AMU)

    1     N                14.00307
    2     C                12.00000
    3     CL               34.96885
    4     H                 1.00782
    5     H                 1.00782
    6     H                 1.00782
    7     H                 1.00782

 * * * WARNING, MODE 1 HAS BEEN CHOSEN AS A VIBRATION
          WHILE MODE 7 IS ASSUMED TO BE A TRANSLATION/ROTATION.
 PLEASE VERIFY THE PROGRAM'S DECISION MANUALLY!


 * * * WARNING, MODE 8 HAS BEEN CHOSEN AS A VIBRATION
          WHILE MODE 2 IS ASSUMED TO BE A TRANSLATION/ROTATION.
 PLEASE VERIFY THE PROGRAM'S DECISION MANUALLY!


 MODE(S)     1 TO     1 TREATED AS IMAGINARY.

 MODES    2 TO    7 ARE TAKEN AS ROTATIONS AND TRANSLATIONS.

 ANALYZING SYMMETRY OF NORMAL MODES...

     FREQUENCIES IN CM**-1, IR INTENSITIES IN DEBYE**2/AMU-ANGSTROM**2,
     REDUCED MASSES IN AMU.

                            1           2           3           4           5
       FREQUENCY:      1086.69 I      0.04        0.03        0.06        8.76  
        SYMMETRY:         A           A           A           A           A   
    REDUCED MASS:      1.37907     9.30772     9.30107     9.26362     4.68255
    IR INTENSITY:      5.80807     0.00000     0.00000     0.00000     0.55555

  1   N            X  0.00100852  0.01420136 -0.01376141  0.12263035  0.01211642
                   Y -0.02266969  0.12149329  0.02049978 -0.01202971 -0.12593011
                   Z  0.02690398 -0.01862983  0.12134530  0.01569282  0.13042304
  2   C            X -0.00441758  0.01419043 -0.01374966  0.12262446  0.00742789
                   Y  0.09711491  0.12186183  0.02025265 -0.01164246 -0.01699076
                   Z -0.11453718 -0.01881765  0.12164012  0.01569556  0.02017284
  3   CL           X  0.00035380  0.01401700 -0.01375030  0.12230475 -0.00917757
                   Y -0.00787034  0.12191820  0.02021907 -0.01164381  0.06952337
                   Z  0.00924816 -0.01876521  0.12168101  0.01591957 -0.07289600
  4   H            X  0.02500050  0.01428364 -0.01374232  0.12280393  0.01417386
                   Y -0.53737345  0.12205453  0.02012097 -0.01140322  0.00107591
                   Z  0.63344029 -0.01896112  0.12179634  0.01556984  0.00509244
  5   H            X -0.05769740  0.01437156 -0.01398292  0.12268261  0.09546095
                   Y -0.04080411  0.12129640  0.02063389 -0.01229595 -0.13114305
                   Z  0.01146025 -0.01859243  0.12127148  0.01566189  0.16762246
  6   H            X -0.00025410  0.01430969 -0.01376245  0.12282607  0.02278846
                   Y  0.01197728  0.12147279  0.02051175 -0.01201013 -0.16769552
                   Z -0.01484392 -0.01866119  0.12133112  0.01556686  0.17608326
  7   H            X  0.05926342  0.01394147 -0.01354918  0.12240539 -0.07699860
                   Y -0.00207737  0.12140568  0.02055742 -0.01209856 -0.17134088
                   Z  0.03902768 -0.01848332  0.12118947  0.01583794  0.14139251

 TRANS. SAYVETZ    X  0.00000171  0.91665794 -0.89399750  7.96010922 -0.00626905
                   Y -0.00000767  7.91699435  1.31959351 -0.76351472 -0.00891914
                   Z  0.00000965 -1.21816703  7.90332120  1.02791026  0.01333425
               TOTAL  0.00001245  8.06244332  8.06244657  8.06243717  0.01722365

   ROT. SAYVETZ    X  0.00060481 -0.00906272  0.01259400  0.00390904-10.82312683
                   Y  0.00083602  0.00197604 -0.01794799 -0.02132266  9.84974901
                   Z  0.00066670  0.03016131 -0.01535829  0.03426576 10.86495778
               TOTAL  0.00122851  0.03155539  0.02676969  0.04054724 18.22648999

                            6           7           8           9          10
       FREQUENCY:         9.88       25.83      171.49      354.49      847.65  
        SYMMETRY:         A           A           A           A           A   
    REDUCED MASS:      4.71710     2.10120     1.09858     3.45984     3.33783
    IR INTENSITY:      0.43984     0.30052     0.37840     0.42796     0.42623

  1   N            X -0.08143050 -0.00039336  0.00016840 -0.09882774  0.10418440
                   Y  0.09779841  0.03412972 -0.00047781 -0.08660140  0.04039728
                   Z  0.10458593 -0.04336999  0.00044338 -0.06961076  0.02989710
  2   C            X -0.08255194  0.00720268 -0.00191044 -0.08872355 -0.05182192
                   Y -0.00569627 -0.12411095  0.04928915  0.06691859  0.12077551
                   Z  0.00486366  0.14603819 -0.05852781  0.05999228  0.10461229
  3   CL           X  0.07365736 -0.00238158  0.00046411  0.08011313 -0.03185217
                   Y -0.04662875  0.03146262 -0.01498602  0.02336352 -0.05607762
                   Z -0.05429617 -0.03543568  0.01764064  0.01675496 -0.04629100
  4   H            X -0.17263813  0.01710666 -0.00253494 -0.05982621 -0.01647092
                   Y -0.04612699 -0.30935747  0.06679005  0.07828958  0.14434766
                   Z -0.02287483  0.36550772 -0.07901059  0.06833923  0.12320725
  5   H            X -0.03184943 -0.14535642  0.12082557 -0.20605446 -0.06786965
                   Y  0.13558832  0.26871959  0.48634980 -0.17225583 -0.08619142
                   Z  0.13508215 -0.06141323  0.14623605 -0.13523410 -0.06135334
  6   H            X -0.17647441  0.00393950  0.01584993  0.11949668  0.42497690
                   Y  0.11521548 -0.05901077 -0.37855246 -0.13850764 -0.03227770
                   Z  0.13276357  0.06860782  0.45574545 -0.11962956 -0.04280098
  7   H            X -0.04343930  0.13410515 -0.12987559 -0.20375514 -0.06598984
                   Y  0.12869473  0.01553356 -0.23497952 -0.17170917 -0.07948626
                   Z  0.12980132 -0.28408956 -0.44419023 -0.14195669 -0.07388354

 TRANS. SAYVETZ    X  0.01709058  0.00751411 -0.00003962  0.00001071  0.00000035
                   Y  0.00654934  0.00402777 -0.00012933 -0.00001257 -0.00000484
                   Z  0.00191838 -0.00469367  0.00014486 -0.00000671 -0.00000397
               TOTAL  0.01840277  0.00973218  0.00019819  0.00001782  0.00000626

   ROT. SAYVETZ    X -1.57531790 -6.98529566 -0.26832856  0.00029509  0.00028025
                   Y 13.36131747 -1.96027129  0.01157858 -0.00639953 -0.00232139
                   Z-13.94767238 -1.01799120  0.02602134  0.01072467  0.00326516
               TOTAL 19.37895755  7.32620810  0.26983585  0.01249238  0.00401605

                           11          12          13          14          15
       FREQUENCY:      1134.35     1195.32     1234.63     1451.64     1718.07  
        SYMMETRY:         A           A           A           A           A   
    REDUCED MASS:      3.57468     1.67918     1.17971     1.25865     1.14945
    IR INTENSITY:      0.61052     0.48098     0.53838     2.93588     0.30147

  1   N            X -0.10956132 -0.07241456 -0.00510486 -0.02245680 -0.09517213
                   Y -0.01931011  0.06410186  0.06365330  0.04697476 -0.01556176
                   Z -0.01078486  0.05847104 -0.07394695  0.04098612 -0.00868494
  2   C            X  0.16663379  0.13553400  0.00430336 -0.04985565 -0.01112433
                   Y  0.09955175 -0.03610298 -0.02841548 -0.07817180  0.00019723
                   Z  0.07747977 -0.03673387  0.03381126 -0.06455291  0.00062956
  3   CL           X -0.01429967 -0.00807352 -0.00015409  0.00585373  0.00063052
                   Y -0.03451051  0.00284609 -0.00022732  0.00369964 -0.00010211
                   Z -0.02880737  0.00280843 -0.00012411  0.00295252 -0.00011070
  4   H            X  0.31155617 -0.23740074  0.00866042  0.76236573  0.00094668
                   Y  0.16852677 -0.20706275 -0.13785041  0.26756057  0.01110630
                   Z  0.12823489 -0.17109550  0.16194775  0.19552177  0.00939672
  5   H            X -0.01009151 -0.27908012  0.57039919 -0.13283465  0.44684008
                   Y  0.05239090 -0.16871251 -0.20173883 -0.07063414  0.10111667
                   Z  0.03117249 -0.09467367  0.11697660 -0.02218371  0.22260515
  6   H            X -0.26654589  0.45148731  0.01237004  0.20198933  0.54782096
                   Y  0.01736723 -0.05094583 -0.09197036 -0.00736529 -0.14769648
                   Z  0.02321821 -0.06159976  0.10805870 -0.01455041 -0.14991977
  7   H            X -0.00055554 -0.26250321 -0.56639009 -0.12898422  0.43732226
                   Y  0.04209594 -0.13281305 -0.10663729 -0.03983442  0.25288935
                   Z  0.04422423 -0.14510949  0.24218118 -0.06208688  0.03493445

 TRANS. SAYVETZ    X -0.00000015  0.00000086  0.00000385 -0.00000012 -0.00000280
                   Y  0.00000220 -0.00000096 -0.00000138 -0.00000023  0.00000082
                   Z  0.00000045 -0.00000043 -0.00000152  0.00000042 -0.00000002
               TOTAL  0.00000225  0.00000136  0.00000436  0.00000049  0.00000292

   ROT. SAYVETZ    X  0.00006177  0.00007568 -0.00013670  0.00013100  0.00010516
                   Y  0.00018865 -0.00207809  0.00316642 -0.00130236 -0.00025105
                   Z -0.00059008  0.00292199  0.00248217  0.00144256  0.00042196
               TOTAL  0.00062257  0.00358639  0.00402568  0.00194789  0.00050213

                           16          17          18          19          20
       FREQUENCY:      1883.93     1990.34     3709.24     3827.28     3861.08  
        SYMMETRY:         A           A           A           A           A   
    REDUCED MASS:      1.05076     1.04782     1.03342     1.09535     1.09171
    IR INTENSITY:      0.47949     0.52652     1.06002     0.01325     0.01464

  1   N            X -0.00216513  0.01485193  0.03763034 -0.00176160  0.00398794
                   Y  0.03583188 -0.03890479 -0.01551960  0.05012187  0.00113657
                   Z -0.04290211 -0.03326039 -0.01276147 -0.06021650  0.00067480
  2   C            X -0.00034266  0.00780530  0.00175797 -0.00000373  0.03957946
                   Y  0.00269295 -0.00535212  0.00765256 -0.00169173 -0.05525780
                   Z -0.00319793 -0.00484740  0.00631742  0.00241681 -0.04843282
  3   CL           X  0.00000715  0.00013005 -0.00015634  0.00000002  0.00039296
                   Y -0.00015114  0.00044109 -0.00004942 -0.00003855  0.00081255
                   Z  0.00017283  0.00038463 -0.00003516  0.00004053  0.00067625
  4   H            X -0.00045209  0.01610839  0.04590601  0.00096946 -0.45242196
                   Y  0.01164354 -0.00768148 -0.07975457  0.00538727  0.62418625
                   Z -0.01332804 -0.00742026 -0.06919137 -0.01066351  0.54724276
  5   H            X -0.22223253 -0.28690865 -0.23009494 -0.25997764 -0.03403483
                   Y -0.33813878  0.59968862 -0.13118335 -0.11652365 -0.01341529
                   Z -0.20254722 -0.01274929  0.58733149  0.62129798  0.06236159
  6   H            X  0.02491901  0.22659253 -0.08036788 -0.00277957 -0.01689863
                   Y -0.46910567 -0.08929042 -0.22641106 -0.00264288 -0.05303279
                   Z  0.56258806 -0.08024100 -0.18479159 -0.01029892 -0.04346352
  7   H            X  0.23168031 -0.25959847 -0.27379909  0.28630776 -0.03695500
                   Y  0.27092027  0.08626206  0.56358027 -0.56115077  0.05622216
                   Z  0.28146456  0.60691361 -0.23003696  0.20615078 -0.02229952

 TRANS. SAYVETZ    X -0.00000019  0.00000035  0.00000027 -0.00000007 -0.00000019
                   Y  0.00000016 -0.00000020 -0.00000038 -0.00000012  0.00000023
                   Z -0.00000000  0.00000018 -0.00000016  0.00000018  0.00000006
               TOTAL  0.00000024  0.00000044  0.00000049  0.00000023  0.00000031

   ROT. SAYVETZ    X -0.00036581 -0.00000110  0.00003531 -0.00005005  0.00002691
                   Y -0.00017574 -0.00004945  0.00000647 -0.00001699  0.00002022
                   Z -0.00015515  0.00021907 -0.00003839  0.00001119 -0.00000900
               TOTAL  0.00043448  0.00022458  0.00005256  0.00005402  0.00003484

                           21
       FREQUENCY:      4040.10  
        SYMMETRY:         A   
    REDUCED MASS:      1.08888
    IR INTENSITY:      1.39460

  1   N            X -0.00935100
                   Y -0.05761393
                   Z -0.04803371
  2   C            X  0.00298744
                   Y -0.00201721
                   Z -0.00183191
  3   CL           X  0.00012085
                   Y  0.00015833
                   Z  0.00013306
  4   H            X -0.01501066
                   Y  0.02433434
                   Z  0.02107941
  5   H            X -0.08053737
                   Y -0.04241269
                   Z  0.18314820
  6   H            X  0.27436428
                   Y  0.67307233
                   Z  0.54930233
  7   H            X -0.08865438
                   Y  0.16403918
                   Z -0.06893753

 TRANS. SAYVETZ    X -0.00000020
                   Y  0.00000011
                   Z  0.00000009
               TOTAL  0.00000025

   ROT. SAYVETZ    X -0.00003002
                   Y -0.00002101
                   Z  0.00003889
               TOTAL  0.00005343

 REFERENCE ON SAYVETZ CONDITIONS - A. SAYVETZ, J.CHEM.PHYS., 7, 383-389(1939).

 NOTE - THE MODES J,K ARE ORTHONORMALIZED ACCORDING TO
 SUM ON I   M(I) * (X(I,J)*X(I,K) + Y(I,J)*Y(I,K) + Z(I,J)*Z(I,K)) = DELTA(J,K)

  MODE FREQ(CM**-1)  SYMMETRY  RED. MASS  IR INTENS.
     1    1086.689    A        1.379070    5.808065
     2       0.040    A        9.307722    0.000002
     3       0.029    A        9.301067    0.000002
     4       0.062    A        9.263619    0.000002
     5       8.763    A        4.682546    0.555547
     6       9.878    A        4.717100    0.439839
     7      25.829    A        2.101203    0.300519
     8     171.488    A        1.098575    0.378399
     9     354.491    A        3.459842    0.427959
    10     847.648    A        3.337829    0.426234
    11    1134.348    A        3.574680    0.610516
    12    1195.316    A        1.679175    0.480984
    13    1234.628    A        1.179709    0.538380
    14    1451.641    A        1.258653    2.935878
    15    1718.073    A        1.149454    0.301471
    16    1883.929    A        1.050759    0.479486
    17    1990.336    A        1.047817    0.526523
    18    3709.241    A        1.033418    1.060019
    19    3827.281    A        1.095348    0.013247
    20    3861.075    A        1.091713    0.014643
    21    4040.100    A        1.088878    1.394599

     -------------------------------
     THERMOCHEMISTRY AT T=  298.15 K
     -------------------------------

 USING IDEAL GAS, RIGID ROTOR, HARMONIC NORMAL MODE APPROXIMATIONS.
 P=  1.01325E+05 PASCAL.
 ALL FREQUENCIES ARE SCALED BY   1.00000
 THE MOMENTS OF INERTIA ARE (IN AMU*BOHR**2)
             46.54624           339.15747           375.79493
 THE ROTATIONAL SYMMETRY NUMBER IS  1.0
 THE ROTATIONAL CONSTANTS ARE (IN GHZ)
     38.73757     5.31637     4.79806
   1 IMAGINARY FREQUENCY VIBRATION(S) IS(ARE) EXCLUDED
     FROM THE FOLLOWING THERMOCHEMICAL ANALYSIS.
      8 -     21 VIBRATIONAL MODES ARE USED IN THERMOCHEMISTRY.
 THE HARMONIC ZERO POINT ENERGY IS (SCALED BY   1.000)
        0.062466 HARTREE/MOLECULE    13709.796435 CM**-1/MOLECULE 
       39.198314 KCAL/MOL              164.005747 KJ/MOL

               Q               LN Q
 ELEC.     1.00000E+00       0.000000
 TRANS.    2.05995E+07      16.840776
 ROT.      2.75715E+04      10.224537
 VIB.      2.23039E+00       0.802177
 TOT.      1.26677E+12      27.867490

              E         H         G         CV        CP        S
           KJ/MOL    KJ/MOL    KJ/MOL   J/MOL-K   J/MOL-K   J/MOL-K
 ELEC.      0.000     0.000     0.000     0.000     0.000     0.000
 TRANS.     3.718     6.197   -41.747    12.472    20.786   160.807
 ROT.       3.718     3.718   -25.346    12.472    12.472    97.483
 VIB.     166.872   166.872   162.017    20.150    20.150    16.284
 TOTAL    174.309   176.788    94.924    45.093    53.407   274.574
 VIB. THERMAL CORRECTION E(T)-E(0) = H(T)-H(0) =      2866.545 J/MOL

              E         H         G         CV        CP        S
         KCAL/MOL  KCAL/MOL  KCAL/MOL CAL/MOL-K CAL/MOL-K CAL/MOL-K
 ELEC.      0.000     0.000     0.000     0.000     0.000     0.000
 TRANS.     0.889     1.481    -9.978     2.981     4.968    38.434
 ROT.       0.889     0.889    -6.058     2.981     2.981    23.299
 VIB.      39.883    39.883    38.723     4.816     4.816     3.892
 TOTAL     41.661    42.253    22.687    10.777    12.765    65.625
 VIB. THERMAL CORRECTION E(T)-E(0) = H(T)-H(0) =       685.121 CAL/MOL
 ......END OF NORMAL COORDINATE ANALYSIS......
 STEP CPU TIME =     0.01 TOTAL CPU TIME =          4.4 (      0.1 MIN)
 TOTAL WALL CLOCK TIME=          4.7 SECONDS, CPU UTILIZATION IS    94.66%
               580000  WORDS OF DYNAMIC MEMORY USED
 EXECUTION OF GAMESS TERMINATED NORMALLY Tue Dec 21 21:48:48 2021
 DDI: 263640 bytes (0.3 MB / 0 MWords) used by master data server.

 ----------------------------------------
 CPU timing information for all processes
 ========================================
 0: 3.823 + 0.615 = 4.438
 ----------------------------------------
 ddikick.x: exited gracefully.
----- accounting info -----
Files used on the master node chemcompute-node-0.novalocal were:
-rw-r--r--. 1 chemcomp chemcomp      772 Dec 21 21:48 /scratch/330198/368180.F05
-rw-rw-r--. 1 chemcomp chemcomp   540048 Dec 21 21:48 /scratch/330198/368180.F08
-rw-rw-r--. 1 chemcomp chemcomp 90112000 Dec 21 21:48 /scratch/330198/368180.F10
-rw-rw-r--. 1 chemcomp chemcomp    93072 Dec 21 21:48 /scratch/330198/368180.F18
Tue Dec 21 21:48:51 UTC 2021
0.113u 0.098s 0:08.19 2.4%	0+0k 8+216io 0pf+0w
Finishing Up...
Looking for IR data...
Looking for Raman data...
vibramans not found
Looking for thermodynamics data...
Looking for UV-Vis data...
330198
