----- GAMESS execution script 'rungms' -----
This job is running on host chemcompute-node-0.novalocal
under operating system Linux at Tue Dec 21 22:55:51 UTC 2021
SLURM has assigned the following compute nodes to this run:
chemcompute-node-0
Available scratch disk space (Kbyte units) at beginning of the job is
Filesystem     1K-blocks     Used Available Use% Mounted on
/dev/sda1       62903276 16630124  46273152  27% /
GAMESS temporary binary files will be written to /scratch/330231
GAMESS supplementary output files will be written to /data/slurm/368213
Copying input file 368213.inp to your run's scratch directory...
The generated host list is
chemcompute-node-0.novalocal

 Distributed Data Interface kickoff program.
 Initiating 1 compute processes on 1 nodes to run the following command:
 /data/gamess-2019R1-ddi/gamess.00.x 368213 

          ******************************************************
          *         GAMESS VERSION = 30 JUN 2019 (R1)          *
          *             FROM IOWA STATE UNIVERSITY             *
          * M.W.SCHMIDT, K.K.BALDRIDGE, J.A.BOATZ, S.T.ELBERT, *
          *   M.S.GORDON, J.H.JENSEN, S.KOSEKI, N.MATSUNAGA,   *
          *          K.A.NGUYEN, S.J.SU, T.L.WINDUS,           *
          *       TOGETHER WITH M.DUPUIS, J.A.MONTGOMERY       *
          *         J.COMPUT.CHEM.  14, 1347-1363(1993)        *
          **************** 64 BIT LINUX VERSION ****************

  SINCE 1993, STUDENTS AND POSTDOCS WORKING AT IOWA STATE UNIVERSITY
  AND ALSO IN THEIR VARIOUS JOBS AFTER LEAVING ISU HAVE MADE IMPORTANT
  CONTRIBUTIONS TO THE CODE:
     IVANA ADAMOVIC, CHRISTINE AIKENS, YURI ALEXEEV, POOJA ARORA,
     ANDREY ASADCHEV, ROB BELL, PRADIPTA BANDYOPADHYAY, JONATHAN BENTZ,
     COLLEEN BERTONI, BRETT BODE, KURT BRORSEN, CALEB CARLIN, GALINA CHABAN,
     WEI CHEN, CHEOL HO CHOI, PAUL DAY, ALBERT DEFUSCO, NUWAN DESILVA,
     TIM DUDLEY, DMITRI FEDOROV, ALEX FINDLATER, GRAHAM FLETCHER, 
     MARK FREITAG, KURT GLAESEMANN, ANASTASIA GUNINA,
     DAN KEMP, GRANT MERRILL, NORIYUKI MINEZAWA, JONATHAN MULLIN,
     TAKESHI NAGATA, SEAN NEDD, HEATHER NETZLOFF, BOSILJKA NJEGIC, RYAN OLSON,
     MIKE PAK, BUU PHAM,
     SPENCER PRUITT, LUKE ROSKOP, JIM SHOEMAKER, LYUDMILA SLIPCHENKO,
     TONY SMITH, SAROM SOK LEANG, JIE SONG, TETSUYA TAKETSUGU, SIMON WEBB,
     PENG XU, SOOHAENG YOO, FEDERICO ZAHARIEV

  ADDITIONAL CODE HAS BEEN PROVIDED BY COLLABORATORS IN OTHER GROUPS:
     IOWA STATE UNIVERSITY:
          JOE IVANIC, AARON WEST, LAIMUTIS BYTAUTAS, KLAUS RUEDENBERG
     UNIVERSITY OF TOKYO: KIMIHIKO HIRAO, TAKAHITO NAKAJIMA,
          TAKAO TSUNEDA, MUNEAKI KAMIYA, SUSUMU YANAGISAWA,
          KIYOSHI YAGI, MAHITO CHIBA, SEIKEN TOKURA, NAOAKI KAWAKAMI
     UNIVERSITY OF AARHUS: FRANK JENSEN
     UNIVERSITY OF IOWA: VISVALDAS KAIRYS, HUI LI
     NATIONAL INST. OF STANDARDS AND TECHNOLOGY: WALT STEVENS, DAVID GARMER
     UNIVERSITY OF PISA: BENEDETTA MENNUCCI, JACOPO TOMASI
     UNIVERSITY OF MEMPHIS: HENRY KURTZ, PRAKASHAN KORAMBATH
     UNIVERSITY OF ALBERTA: TOBY ZENG, MARIUSZ KLOBUKOWSKI
     UNIVERSITY OF NEW ENGLAND: MARK SPACKMAN
     MIE UNIVERSITY: HIROAKI UMEDA
     NAT. INST. OF ADVANCED INDUSTRIAL SCIENCE AND TECHNOLOGY: KAZUO KITAURA
     MICHIGAN STATE UNIVERSITY:
          KAROL KOWALSKI, MARTA WLOCH, JEFFREY GOUR, JESSE LUTZ,
          WEI LI, JUN SHEN, J. EMILIANO DEUSTUA, PIOTR PIECUCH
     UNIVERSITY OF MINNESOTA:
          YINAN SHU
     UNIVERSITY OF SILESIA: MONIKA MUSIAL, STANISLAW KUCHARSKI
     FACULTES UNIVERSITAIRES NOTRE-DAME DE LA PAIX:
          OLIVIER QUINET, BENOIT CHAMPAGNE
     UNIVERSITY OF CALIFORNIA - SANTA BARBARA: BERNARD KIRTMAN
     INSTITUTE FOR MOLECULAR SCIENCE:
          KAZUYA ISHIMURA, MICHIO KATOUDA, AND SHIGERU NAGASE
     UNIVERSITY OF NOTRE DAME: ANNA POMOGAEVA, DAN CHIPMAN
     KYUSHU UNIVERSITY:
          HARUYUKI NAKANO,
          FENG LONG GU, JACEK KORCHOWIEC, MARCIN MAKOWSKI, AND YURIKO AOKI,
          HIROTOSHI MORI AND EISAKU MIYOSHI
     PENNSYLVANIA STATE UNIVERSITY:
          TZVETELIN IORDANOV, CHET SWALINA, JONATHAN SKONE,
          SHARON HAMMES-SCHIFFER
     WASEDA UNIVERSITY:
          MASATO KOBAYASHI, TOMOKO AKAMA, TSUGUKI TOUMA,
          TAKESHI YOSHIKAWA, YASUHIRO IKABATA, JUNJI SEINO,
          YUYA NAKAJIMA, HIROMI NAKAI
     NANJING UNIVERSITY: SHUHUA LI
     UNIVERSITY OF NEBRASKA:
          PEIFENG SU, DEJUN SI, NANDUN THELLAMUREGE, YALI WANG, HUI LI
     UNIVERSITY OF ZURICH: ROBERTO PEVERATI, KIM BALDRIDGE
     N. COPERNICUS UNIVERSITY AND JACKSON STATE UNIVERSITY:
          MARIA BARYSZ
     UNIVERSITY OF COPENHAGEN: Jimmy Kromann, CASPER STEINMANN
     TOKYO INSTITUTE OF TECHNOLOGY: HIROYA NAKATA
     NAGOYA UNIVERSITY: YOSHIO NISHIMOTO, STEPHAN IRLE
     MOSCOW STATE UNIVERSITY: VLADIMIR MIRONOV
     A.N.NESMEYANOV INSTITUTE OF ORGANOELEMENT COMPOUNDS OF RUSSIAN ACADEMY OF SCIENCES:
          IGOR S. GERASIMOV

 EXECUTION OF GAMESS BEGUN Tue Dec 21 22:55:51 2021

            ECHO OF THE FIRST FEW INPUT CARDS -
 INPUT CARD>!File created by the GAMESS Input Deck Generator Plugin for Avogadro            
 INPUT CARD> $BASIS GBASIS=STO NGAUSS=3 $END                                                
 INPUT CARD> $CONTRL SCFTYP=RHF RUNTYP=IRC $END                                             
 INPUT CARD> $STATPT HESS=read ihrep=5 $END                                                 
 INPUT CARD> $irc npoint=100 saddle=.t. tsengy=.t. forwrd=.f. opttol=0.0005 stride=0.1 $end 
 INPUT CARD>                                                                                
 INPUT CARD> $DATA                                                                          
 INPUT CARD>Title                                                                           
 INPUT CARD>C1                                                                              
 INPUT CARD>N     7.0    -7.31053638     2.77415633    -0.23082681                          
 INPUT CARD>C     6.0    -5.83371973     2.79692554    -0.27110875                          
 INPUT CARD>Cl    17.0    -5.11927223     4.03929234     0.75627595                         
 INPUT CARD>H     1.0    -5.33167696     2.09832740    -0.88344425                          
 INPUT CARD>H     1.0    -7.74050570     2.58165598     0.70704991                          
 INPUT CARD>H     1.0    -7.63506746     2.01039076    -0.85355884                          
 INPUT CARD>H     1.0    -7.79413128     3.64312291    -0.56716228                          
 INPUT CARD> $END                                                                           
 INPUT CARD>                                                                                
 INPUT CARD> $HESS                                                                          
 INPUT CARD>ENERGY IS     -547.8517861053 E(NUC) IS      102.2122145588                     
 INPUT CARD> 1  1 6.07637611E-01-8.62566710E-03 2.28066450E-03-2.00731027E-01 1.49636370E-02
 INPUT CARD> 1  2 1.94749910E-02-1.94653597E-02-4.71965294E-04 1.96350737E-05-3.00155471E-02
 INPUT CARD> 1  3-8.08978105E-03-6.66172149E-03-1.13842459E-01-2.08510313E-02 1.09317821E-01
 INPUT CARD> 1  4-1.14097396E-01-9.61438499E-02-7.87815061E-02-1.29485489E-01 1.19218189E-01
 INPUT CARD> 1  5-4.56500616E-02                                                            
 INPUT CARD> 2  1-8.62566710E-03 9.22137416E-01 6.39324400E-02-9.83594367E-04-7.41385945E-02
 INPUT CARD> 2  2-4.73021935E-02-3.20118444E-02-1.60459130E-02-2.49542449E-03 2.26651719E-02
 INPUT CARD> 2  3-5.48303530E-03 1.67814621E-02-2.96641103E-02-1.08411249E-01 6.68910537E-02
 INPUT CARD> 2  4-1.17442927E-01-3.42027468E-01-2.09420364E-01 1.66063453E-01-3.76031347E-01
 INPUT CARD> 2  5 1.11612970E-01                                                            
 INPUT CARD> 3  1 2.28066450E-03 6.39324400E-02 9.01366693E-01 6.87494048E-03-4.80387891E-02
 INPUT CARD> 3  2-5.94979435E-02-2.68023778E-02-3.77582615E-03-1.35770342E-02 1.93916428E-02
 INPUT CARD> 3  3 1.81125860E-02-1.18722229E-02 1.58055327E-01 7.02729299E-02-4.22572754E-01
 INPUT CARD> 3  4-9.65875429E-02-2.10321209E-01-2.55885611E-01-6.32128618E-02 1.09817978E-01
 INPUT CARD> 3  5-1.37961183E-01                                                            
 INPUT CARD> 4  1-2.00731027E-01-9.83594367E-04 6.87494048E-03 5.13809992E-01-8.20283695E-02
 INPUT CARD> 4  2-9.44693117E-02-7.51797460E-02-7.85681329E-02-6.25617695E-02-1.48240418E-01
 INPUT CARD> 4  3 1.48702297E-01 1.34820833E-01-3.97390616E-02-3.64643917E-03 2.18459704E-02
 INPUT CARD> 4  4-8.03991524E-03-2.02783883E-03-1.58392137E-03-4.18798542E-02 1.85523724E-02
 INPUT CARD> 4  5-4.92663333E-03                                                            
 INPUT CARD> 5  1 1.49636370E-02-7.41385945E-02-4.80387891E-02-8.20283695E-02 4.10256662E-01
 INPUT CARD> 5  2 4.59095594E-01-7.70103396E-02-1.53218249E-01-1.55575387E-01 1.36865968E-01
 INPUT CARD> 5  3-2.07849983E-01-2.44388982E-01 1.21670694E-02 8.17286799E-03-5.76234792E-03
 INPUT CARD> 5  4-2.79455955E-02-3.46430992E-04 3.20969026E-03 2.29872750E-02 1.71237486E-02
 INPUT CARD> 5  5-8.54020019E-03                                                            
 INPUT CARD> 6  1 1.94749910E-02-4.73021935E-02-5.94979435E-02-9.44693117E-02 4.59095594E-01
 INPUT CARD> 6  2 2.66504542E-01-6.11671401E-02-1.55362281E-01-9.63458028E-02 1.24851600E-01
 INPUT CARD> 6  3-2.45009702E-01-1.38537727E-01 2.42885093E-02-5.89527864E-03 1.75213824E-02
 INPUT CARD> 6  4-2.33544347E-02 2.11443110E-03-1.83087704E-04 1.03764441E-02-7.64096176E-03
 INPUT CARD> 6  5 1.05387024E-02                                                            
    1000000 WORDS OF MEMORY AVAILABLE

     BASIS OPTIONS
     -------------
     GBASIS=STO          IGAUSS=       3      POLAR=NONE    
     NDFUNC=       0     NFFUNC=       0     DIFFSP=       F
     NPFUNC=       0      DIFFS=       F     BASNAM=        


     RUN TITLE
     ---------
 Title                                                                           

 THE POINT GROUP OF THE MOLECULE IS C1      
 THE ORDER OF THE PRINCIPAL AXIS IS     0

 ATOM      ATOMIC                      COORDINATES (BOHR)
           CHARGE         X                   Y                   Z
 N           7.0   -13.8149105815        5.2423953108       -0.4361994215
 C           6.0   -11.0241317789        5.2854228787       -0.5123212504
 CL         17.0    -9.6740217713        7.6331557069        1.4291543166
 H           1.0   -10.0754085094        3.9652638185       -1.6694675579
 H           1.0   -14.6274347794        4.8786223968        1.3361305895
 H           1.0   -14.4281853972        3.7990876646       -1.6129923220
 H           1.0   -14.7287724315        6.8845040395       -1.0717812998

          INTERNUCLEAR DISTANCES (ANGS.)
          ------------------------------

                1 N          2 C          3 CL         4 H          5 H     

   1 N       0.0000000    1.4775414 *  2.7159859 *  2.1905567 *  1.0495441 *
   2 C       1.4775414 *  0.0000000    1.7633575 *  1.0559551 *  2.1538264 *
   3 CL      2.7159859 *  1.7633575 *  0.0000000    2.5497339 *  2.9996653 *
   4 H       2.1905567 *  1.0559551 *  2.5497339 *  0.0000000    2.9267275 *
   5 H       1.0495441 *  2.1538264 *  2.9996653 *  2.9267275 *  0.0000000  
   6 H       1.0375227 *  2.0500582 *  3.6107112    2.3052622 *  1.6652210 *
   7 H       1.0498040 *  2.1556695 *  3.0105332    2.9240569 *  1.6592783 *

                6 H          7 H     

   1 N       1.0375227 *  1.0498040 *
   2 C       2.0500582 *  2.1556695 *
   3 CL      3.6107112    3.0105332  
   4 H       2.3052622 *  2.9240569 *
   5 H       1.6652210 *  1.6592783 *
   6 H       0.0000000    1.6652743 *
   7 H       1.6652743 *  0.0000000  

  * ... LESS THAN  3.000


     ATOMIC BASIS SET
     ----------------
 THE CONTRACTED PRIMITIVE FUNCTIONS HAVE BEEN UNNORMALIZED
 THE CONTRACTED BASIS FUNCTIONS ARE NOW NORMALIZED TO UNITY

  SHELL TYPE  PRIMITIVE        EXPONENT          CONTRACTION COEFFICIENT(S)

 N         

      1   S       1            99.1061690    0.154328967295
      1   S       2            18.0523124    0.535328142282
      1   S       3             4.8856602    0.444634542185

      2   L       4             3.7804559   -0.099967229187    0.155916274999
      2   L       5             0.8784966    0.399512826089    0.607683718598
      2   L       6             0.2857144    0.700115468880    0.391957393099

 C         

      3   S       7            71.6168373    0.154328967295
      3   S       8            13.0450963    0.535328142282
      3   S       9             3.5305122    0.444634542185

      4   L      10             2.9412494   -0.099967229187    0.155916274999
      4   L      11             0.6834831    0.399512826089    0.607683718598
      4   L      12             0.2222899    0.700115468880    0.391957393099

 CL        

      5   S      13           601.3456136    0.154328967295
      5   S      14           109.5358542    0.535328142282
      5   S      15            29.6446769    0.444634542185

      6   L      16            38.9604189   -0.099967229187    0.155916274999
      6   L      17             9.0535635    0.399512826089    0.607683718598
      6   L      18             2.9444998    0.700115468880    0.391957393099

      7   L      19             2.2112785   -0.219620369005    0.010587604289
      7   L      20             0.6169411    0.225595433605    0.595167005266
      7   L      21             0.2414666    0.900398426019    0.462001011973

 H         

      8   S      22             3.4252509    0.154328967295
      8   S      23             0.6239137    0.535328142282
      8   S      24             0.1688554    0.444634542185

 H         

      9   S      25             3.4252509    0.154328967295
      9   S      26             0.6239137    0.535328142282
      9   S      27             0.1688554    0.444634542185

 H         

     10   S      28             3.4252509    0.154328967295
     10   S      29             0.6239137    0.535328142282
     10   S      30             0.1688554    0.444634542185

 H         

     11   S      31             3.4252509    0.154328967295
     11   S      32             0.6239137    0.535328142282
     11   S      33             0.1688554    0.444634542185

 TOTAL NUMBER OF BASIS SET SHELLS             =   11
 NUMBER OF CARTESIAN GAUSSIAN BASIS FUNCTIONS =   23
 NUMBER OF ELECTRONS                          =   34
 CHARGE OF MOLECULE                           =    0
 SPIN MULTIPLICITY                            =    1
 NUMBER OF OCCUPIED ORBITALS (ALPHA)          =   17
 NUMBER OF OCCUPIED ORBITALS (BETA )          =   17
 TOTAL NUMBER OF ATOMS                        =    7
 THE NUCLEAR REPULSION ENERGY IS      102.2122145588

     $CONTRL OPTIONS
     ---------------
 SCFTYP=RHF          RUNTYP=IRC          EXETYP=RUN     
 MPLEVL=       0     CITYP =NONE         CCTYP =NONE         VBTYP =NONE    
 DFTTYP=NONE         TDDFT =NONE    
 MULT  =       1     ICHARG=       0     NZVAR =       0     COORD =UNIQUE  
 PP    =NONE         RELWFN=NONE         LOCAL =NONE         NUMGRD=       F
 ISPHER=      -1     NOSYM =       0     MAXIT =      30     UNITS =ANGS    
 PLTORB=       F     MOLPLT=       F     AIMPAC=       F     FRIEND=        
 NPRINT=       7     IREST =       0     GEOM  =INPUT   
 NORMF =       0     NORMP =       0     ITOL  =      20     ICUT  =       9
 INTTYP=BEST         GRDTYP=BEST         QMTTOL= 1.0E-06

     $SYSTEM OPTIONS
     ---------------
  REPLICATED MEMORY=     1000000 WORDS (ON EVERY NODE).
 DISTRIBUTED MEMDDI=           0 MILLION WORDS IN AGGREGATE,
 MEMDDI DISTRIBUTED OVER   1 PROCESSORS IS           0 WORDS/PROCESSOR.
 TOTAL MEMORY REQUESTED ON EACH PROCESSOR=     1000000 WORDS.
 TIMLIM=      525600.00 MINUTES, OR     365.0 DAYS.
 PARALL= F  BALTYP=  DLB     KDIAG=    0  COREFL= F
 MXSEQ2=     300 MXSEQ3=     150  mem10=         0

          ----------------
          PROPERTIES INPUT
          ----------------

     MOMENTS            FIELD           POTENTIAL          DENSITY
 IEMOM =       1   IEFLD =       0   IEPOT =       0   IEDEN =       0
 WHERE =COMASS     WHERE =NUCLEI     WHERE =NUCLEI     WHERE =NUCLEI  
 OUTPUT=BOTH       OUTPUT=BOTH       OUTPUT=BOTH       OUTPUT=BOTH    
 IEMINT=       0   IEFINT=       0                     IEDINT=       0
                                                       MORB  =       0
          EXTRAPOLATION IN EFFECT
          SOSCF IN EFFECT
 ORBITAL PRINTING OPTION: NPREO=     1    23     2     1

     -------------------------------
     INTEGRAL TRANSFORMATION OPTIONS
     -------------------------------
     NWORD  =            0
     CUTOFF = 1.0E-09     MPTRAN =       0
     DIRTRF =       F     AOINTS =DUP     

          ----------------------
          INTEGRAL INPUT OPTIONS
          ----------------------
 NOPK  =       1 NORDER=       0 SCHWRZ=       T

     ------------------------------------------
     THE POINT GROUP IS C1 , NAXIS= 0, ORDER= 1
     ------------------------------------------

     DIMENSIONS OF THE SYMMETRY SUBSPACES ARE
 A   =   23

 ..... DONE SETTING UP THE RUN .....
 STEP CPU TIME =     0.02 TOTAL CPU TIME =          0.0 (      0.0 MIN)
 TOTAL WALL CLOCK TIME=          0.0 SECONDS, CPU UTILIZATION IS    50.00%

          -----------------------------
          INTRINSIC REACTION COORDINATE
          -----------------------------
          PACE   =GS2     
          STRIDE = 0.10000 BOHR*SQRT(AMU)
          NPOINT =     100
          NEXTPT =       0
          STOTAL =  0.0000 BOHR*SQRT(AMU)
          SAB    =  0.0000 BOHR*SQRT(AMU)
          NPRT   =       0
          NPUN   =       0

          SADDLE =       T
          TSENGY =       T
          FORWRD =       F
          EVIB   = 0.00050 HARTREE
          FREQ   =     0.0 CM**-1

          STABLZ =       F
          ELBOW  =  175.00 DEGREES
          DELTA  = 0.02500 BOHR

          READQB =       F
          EB     =        0.0000000000 HARTREES
          GBNORM =        0.0000000000 HARTREES/SQRT(AMU)-BOHR

          GCUT   = 0.0000500 HARTREES/SQRT(AMU)-BOHR
          RCUT   = 0.0005000 BOHR
          ACUT   =    5.00 DEGREES
          MXOPT  =      20
          IHUPD  =       2

 ATOMIC MASSES USED (IN AMU) ARE
     N             14.0031
     C             12.0000
     CL            34.9689
     H              1.0078
     H              1.0078
     H              1.0078
     H              1.0078

 JUMP AWAY FROM SADDLE POINT WILL BE FOUND FROM THE INPUT HESSIAN MATRIX

 COMPUTING WAVEFUNCTION AT TRANSITION STATE...

          ********************
          1 ELECTRON INTEGRALS
          ********************
 ...... END OF ONE-ELECTRON INTEGRALS ......
 STEP CPU TIME =     0.01 TOTAL CPU TIME =          0.0 (      0.0 MIN)
 TOTAL WALL CLOCK TIME=          0.1 SECONDS, CPU UTILIZATION IS    42.86%

          -------------
          GUESS OPTIONS
          -------------
          GUESS =HUCKEL            NORB  =       0          NORDER=       0
          MIX   =       F          PRTMO =       F          PUNMO =       F
          TOLZ  = 1.0E-08          TOLE  = 1.0E-05
          SYMDEN=       F          PURIFY=       F

 INITIAL GUESS ORBITALS GENERATED BY HUCKEL   ROUTINE.
 HUCKEL GUESS REQUIRES     10848 WORDS.

 SYMMETRIES FOR INITIAL GUESS ORBITALS FOLLOW.   BOTH SET(S).
    17 ORBITALS ARE OCCUPIED (    7 CORE ORBITALS).
     8=A        9=A       10=A       11=A       12=A       13=A       14=A   
    15=A       16=A       17=A       18=A       19=A       20=A       21=A   
    22=A       23=A   
 ...... END OF INITIAL ORBITAL SELECTION ......
 STEP CPU TIME =     0.02 TOTAL CPU TIME =          0.0 (      0.0 MIN)
 TOTAL WALL CLOCK TIME=          0.1 SECONDS, CPU UTILIZATION IS    62.50%

                    ----------------------
                    AO INTEGRAL TECHNOLOGY
                    ----------------------
     S,P,L SHELL ROTATED AXIS INTEGRALS, REPROGRAMMED BY
        KAZUYA ISHIMURA (IMS) AND JOSE SIERRA (SYNSTAR).
     S,P,D,L SHELL ROTATED AXIS INTEGRALS PROGRAMMED BY
        KAZUYA ISHIMURA (INSTITUTE FOR MOLECULAR SCIENCE).
     S,P,D,F,G SHELL TO TOTAL QUARTET ANGULAR MOMENTUM SUM 5,
        ERIC PROGRAM BY GRAHAM FLETCHER (ELORET AND NASA ADVANCED
        SUPERCOMPUTING DIVISION, AMES RESEARCH CENTER).
     S,P,D,F,G,L SHELL GENERAL RYS QUADRATURE PROGRAMMED BY
        MICHEL DUPUIS (PACIFIC NORTHWEST NATIONAL LABORATORY).

          --------------------
          2 ELECTRON INTEGRALS
          --------------------

 THE -PK- OPTION IS OFF, THE INTEGRALS ARE NOT IN SUPERMATRIX FORM.
 STORING   15000 INTEGRALS/RECORD ON DISK, USING 12 BYTES/INTEGRAL.
 TWO ELECTRON INTEGRAL EVALUATION REQUIRES   89422 WORDS OF MEMORY.
 SCHWARZ INEQUALITY OVERHEAD:       271 INTEGRALS, T=        0.00
 II,JST,KST,LST =  1  1  1  1 NREC =         1 INTLOC =    1
 II,JST,KST,LST =  2  1  1  1 NREC =         1 INTLOC =    2
 II,JST,KST,LST =  3  1  1  1 NREC =         1 INTLOC =   34
 II,JST,KST,LST =  4  1  1  1 NREC =         1 INTLOC =  132
 II,JST,KST,LST =  5  1  1  1 NREC =         1 INTLOC = 1332
 II,JST,KST,LST =  6  1  1  1 NREC =         1 INTLOC = 1864
 II,JST,KST,LST =  7  1  1  1 NREC =         1 INTLOC = 5845
 II,JST,KST,LST =  8  1  1  1 NREC =         2 INTLOC =  308
 II,JST,KST,LST =  9  1  1  1 NREC =         2 INTLOC = 4116
 II,JST,KST,LST = 10  1  1  1 NREC =         2 INTLOC = 8530
 II,JST,KST,LST = 11  1  1  1 NREC =         2 INTLOC =13616
 SCHWARZ INEQUALITY TEST SKIPPED         249 INTEGRAL BLOCKS.
 TOTAL NUMBER OF NONZERO TWO-ELECTRON INTEGRALS =               34472
          3 INTEGRAL RECORDS WERE STORED ON DISK FILE  8.
  ...... END OF TWO-ELECTRON INTEGRALS .....
 STEP CPU TIME =     0.03 TOTAL CPU TIME =          0.1 (      0.0 MIN)
 TOTAL WALL CLOCK TIME=          0.1 SECONDS, CPU UTILIZATION IS    80.00%

          --------------------------
                 RHF SCF CALCULATION
          --------------------------

     NUCLEAR ENERGY =       102.2122145588
     MAXIT =   30     NPUNCH=    2
     EXTRAP=T  DAMP=F  SHIFT=F  RSTRCT=F  DIIS=F  DEM=F  SOSCF=T
     DENSITY MATRIX CONV=  1.00E-05
     SOSCF WILL OPTIMIZE     102 ORBITAL ROTATIONS, SOGTOL=   0.250
     MEMORY REQUIRED FOR RHF ITERS=     34433 WORDS.

 ITER EX DEM     TOTAL ENERGY        E CHANGE  DENSITY CHANGE     ORB. GRAD
   1  0  0     -547.5201421160  -547.5201421160   0.766177149   0.000000000
          ---------------START SECOND ORDER SCF---------------
   2  1  0     -547.8311446691    -0.3110025531   0.135478367   0.062957917
   3  2  0     -547.8501517599    -0.0190070908   0.060951314   0.021920883
   4  3  0     -547.8517397610    -0.0015880011   0.012695966   0.002800410
   5  4  0     -547.8517850183    -0.0000452573   0.000833725   0.000274671
   6  5  0     -547.8517860076    -0.0000009893   0.000306104   0.000110909
   7  6  0     -547.8517861031    -0.0000000954   0.000045650   0.000012691
   8  7  0     -547.8517861051    -0.0000000020   0.000014429   0.000004425
   9  8  0     -547.8517861053    -0.0000000002   0.000002362   0.000001048
  10  9  0     -547.8517861053    -0.0000000000   0.000000839   0.000000245

          -----------------
          DENSITY CONVERGED
          -----------------
     TIME TO FORM FOCK OPERATORS=       0.0 SECONDS (       0.0 SEC/ITER)
     TIME TO SOLVE SCF EQUATIONS=       0.0 SECONDS (       0.0 SEC/ITER)

 FINAL RHF ENERGY IS     -547.8517861053 AFTER  10 ITERATIONS

          ------------
          EIGENVECTORS
          ------------

                      1          2          3          4          5
                 -103.5111   -15.5673   -10.8437   -10.2144    -7.6566
                     A          A          A          A          A   
    1  N  1  S    0.000002   0.993275   0.000492  -0.000024   0.000020
    2  N  1  S   -0.000029   0.032645  -0.005069   0.000527  -0.000561
    3  N  1  X   -0.000004  -0.001170  -0.004097   0.000012  -0.000146
    4  N  1  Y   -0.000008  -0.000363  -0.000063   0.000044  -0.000081
    5  N  1  Z   -0.000007  -0.000246   0.000112   0.000043  -0.000067
    6  C  2  S   -0.000054   0.000407   0.992258   0.002008  -0.001364
    7  C  2  S    0.000367  -0.004306   0.033734  -0.007581   0.010591
    8  C  2  X    0.000134   0.003803  -0.001099  -0.002608   0.003406
    9  C  2  Y    0.000257   0.000025  -0.000346  -0.004897   0.006517
   10  C  2  Z    0.000213  -0.000131  -0.000241  -0.004058   0.005402
   11  CL 3  S    0.994486   0.000003   0.000222  -0.376807  -0.004012
   12  CL 3  S    0.015799  -0.000001  -0.000699   1.052625   0.011421
   13  CL 3  X   -0.000048   0.000023  -0.000197  -0.004243   0.424762
   14  CL 3  Y   -0.000078   0.000004  -0.000327  -0.005969   0.687699
   15  CL 3  Z   -0.000064   0.000003  -0.000270  -0.004902   0.567589
   16  CL 3  S   -0.001867   0.000178  -0.004420   0.046276  -0.005520
   17  CL 3  X    0.000096  -0.000200   0.001798  -0.002284   0.020645
   18  CL 3  Y    0.000164  -0.000063   0.003012  -0.003748   0.033722
   19  CL 3  Z    0.000135  -0.000045   0.002488  -0.003094   0.027839
   20  H  4  S    0.000016   0.000241  -0.007146  -0.000249   0.000181
   21  H  5  S    0.000015  -0.005833  -0.000464  -0.000310   0.000199
   22  H  6  S    0.000009  -0.006000  -0.000474  -0.000176   0.000201
   23  H  7  S    0.000014  -0.005830  -0.000463  -0.000295   0.000189

                      6          7          8          9         10
                   -7.6523    -7.6517    -1.2594    -0.9429    -0.7611
                     A          A          A          A          A   
    1  N  1  S    0.000039  -0.000000  -0.225774   0.022140  -0.002583
    2  N  1  S   -0.000802   0.000002   0.779648  -0.082609   0.017649
    3  N  1  X   -0.000211   0.000009  -0.053575   0.140024   0.469288
    4  N  1  Y    0.000372  -0.000208  -0.013636   0.031635  -0.197991
    5  N  1  Z    0.000318   0.000250  -0.008847   0.021248  -0.184969
    6  C  2  S    0.000051   0.000000  -0.049282  -0.095315  -0.138090
    7  C  2  S   -0.000461  -0.000001   0.096049   0.249958   0.399281
    8  C  2  X   -0.003305  -0.000095  -0.048962   0.022625  -0.083534
    9  C  2  Y    0.000902   0.001971   0.001301   0.055433  -0.079620
   10  C  2  Z    0.000901  -0.002317   0.003127   0.046310  -0.063747
   11  CL 3  S   -0.000192   0.000001   0.004255   0.080074  -0.030436
   12  CL 3  S    0.000543  -0.000002  -0.014343  -0.265048   0.099102
   13  CL 3  X    0.892618   0.030701   0.003894   0.018277   0.007756
   14  CL 3  Y   -0.306238  -0.640647   0.003680   0.023315   0.017303
   15  CL 3  Z   -0.296843   0.753242   0.002970   0.019069   0.014387
   16  CL 3  S    0.000068   0.000001   0.040301   0.861039  -0.356013
   17  CL 3  X    0.037170   0.001276  -0.009988  -0.054737  -0.022645
   18  CL 3  Y   -0.012894  -0.026629  -0.009662  -0.065664  -0.052777
   19  CL 3  Z   -0.012482   0.031308  -0.007810  -0.053565  -0.043924
   20  H  4  S    0.000771   0.000002   0.016929   0.060223   0.185714
   21  H  5  S    0.000348  -0.000257   0.117285  -0.033963  -0.190416
   22  H  6  S    0.000142   0.000002   0.127665  -0.055325   0.093592
   23  H  7  S    0.000330   0.000251   0.117121  -0.034486  -0.189909

                     11         12         13         14         15
                   -0.7133    -0.7110    -0.5370    -0.3917    -0.3352
                     A          A          A          A          A   
    1  N  1  S   -0.012639   0.000528  -0.043630  -0.015349   0.000022
    2  N  1  S    0.060425  -0.002524   0.207656   0.074604  -0.000132
    3  N  1  X    0.245832   0.011761   0.452617   0.127316  -0.001506
    4  N  1  Y    0.437669  -0.435183  -0.036227   0.077834   0.034050
    5  N  1  Z    0.387457   0.486413  -0.050090   0.060662  -0.040459
    6  C  2  S   -0.063384   0.002519   0.090337   0.031595   0.000032
    7  C  2  S    0.193048  -0.007707  -0.295803  -0.142271  -0.000102
    8  C  2  X   -0.072179   0.005482  -0.322196  -0.088647   0.010027
    9  C  2  Y    0.021870  -0.065626   0.140303  -0.309718  -0.217211
   10  C  2  Z    0.025529   0.076280   0.131587  -0.259421   0.255977
   11  CL 3  S   -0.023900   0.000798   0.010730   0.018211  -0.000004
   12  CL 3  S    0.077457  -0.002585  -0.033946  -0.055524   0.000013
   13  CL 3  X    0.019774  -0.000838   0.021360  -0.103764  -0.007802
   14  CL 3  Y    0.015783   0.004115  -0.043624  -0.143794   0.169120
   15  CL 3  Z    0.012320  -0.005992  -0.037859  -0.118163  -0.198986
   16  CL 3  S   -0.285388   0.009539   0.141448   0.268877  -0.000055
   17  CL 3  X   -0.062487   0.002654  -0.074159   0.350850   0.027703
   18  CL 3  Y   -0.047805  -0.013175   0.142040   0.482708  -0.600491
   19  CL 3  Z   -0.037167   0.019002   0.123449   0.396575   0.706544
   20  H  4  S    0.041192  -0.002097  -0.430281   0.244016  -0.000129
   21  H  5  S    0.144544   0.360114  -0.115508   0.031164  -0.070126
   22  H  6  S   -0.436075   0.017060  -0.001744  -0.126008  -0.000745
   23  H  7  S    0.116134  -0.370655  -0.114333   0.029438   0.070955

                     16         17         18         19         20
                   -0.3045    -0.1139     0.4838     0.4990     0.5312
                     A          A          A          A          A   
    1  N  1  S   -0.021878   0.000027  -0.186218  -0.041149   0.001946
    2  N  1  S    0.113746  -0.000161   1.242692   0.291710  -0.040758
    3  N  1  X    0.121966   0.000465  -0.290703  -0.393450   0.326212
    4  N  1  Y    0.013455  -0.004472  -0.049040   0.324706   0.648485
    5  N  1  Z    0.006726   0.005611  -0.034742   0.299129   0.511861
    6  C  2  S    0.012128   0.000058   0.093720  -0.138287   0.132143
    7  C  2  S   -0.038164  -0.000233  -0.473624   0.718939  -0.716359
    8  C  2  X    0.002501   0.027949   0.103310   0.204618   0.033419
    9  C  2  Y    0.042805  -0.602830  -0.143334   0.377346  -0.064615
   10  C  2  Z    0.036364   0.710153  -0.124333   0.311046  -0.051320
   11  CL 3  S    0.000856   0.000003   0.009928  -0.019493   0.009191
   12  CL 3  S   -0.003048  -0.000011  -0.028899   0.055497  -0.026169
   13  CL 3  X   -0.254621   0.003724   0.045736  -0.065892   0.029258
   14  CL 3  Y    0.088011  -0.079556   0.053167  -0.119158   0.055287
   15  CL 3  Z    0.084817   0.093586   0.043420  -0.098841   0.046074
   16  CL 3  S    0.006736   0.000015   0.167310  -0.342799   0.162464
   17  CL 3  X    0.912545  -0.013932  -0.184192   0.268959  -0.122532
   18  CL 3  Y   -0.313725   0.297762  -0.215135   0.485118  -0.226035
   19  CL 3  Z   -0.302537  -0.350261  -0.175728   0.402336  -0.188236
   20  H  4  S   -0.141186   0.000109   0.191651  -0.184187   0.410676
   21  H  5  S   -0.021419  -0.201200  -0.605474  -0.516194  -0.241945
   22  H  6  S   -0.037216  -0.002014  -0.690305   0.295886   0.937964
   23  H  7  S   -0.021449   0.203198  -0.613881  -0.498853  -0.261102

                     21         22         23
                    0.5469     0.7088     0.9112
                     A          A          A   
    1  N  1  S    0.000492  -0.064824   0.012648
    2  N  1  S   -0.002949   0.417715  -0.091805
    3  N  1  X   -0.037961   0.746435  -0.122225
    4  N  1  Y    0.634698  -0.171000  -0.212373
    5  N  1  Z   -0.768809  -0.173315  -0.174959
    6  C  2  S   -0.003517   0.077086   0.077464
    7  C  2  S    0.018962  -0.435317  -0.557917
    8  C  2  X    0.008556   1.015968  -0.539331
    9  C  2  Y   -0.136380   0.291734   0.745632
   10  C  2  Z    0.169929   0.206723   0.653996
   11  CL 3  S   -0.000362  -0.008636  -0.006018
   12  CL 3  S    0.001034   0.023414   0.015361
   13  CL 3  X   -0.000819   0.001076  -0.040103
   14  CL 3  Y   -0.010895  -0.052826  -0.021590
   15  CL 3  Z    0.008759  -0.044947  -0.016774
   16  CL 3  S   -0.006359  -0.166500  -0.128390
   17  CL 3  X    0.003436  -0.000872   0.173245
   18  CL 3  Y    0.043722   0.224214   0.098662
   19  CL 3  Z   -0.034782   0.190626   0.077048
   20  H  4  S   -0.009533   0.101306   1.195175
   21  H  5  S    0.836753   0.192853   0.067343
   22  H  6  S   -0.004391  -0.117508  -0.187411
   23  H  7  S   -0.834733   0.193019   0.064981
 ...... END OF RHF CALCULATION ......
 STEP CPU TIME =     0.03 TOTAL CPU TIME =          0.1 (      0.0 MIN)
 TOTAL WALL CLOCK TIME=          0.2 SECONDS, CPU UTILIZATION IS    73.33%

     ----------------------------------------------------------------
     PROPERTY VALUES FOR THE RHF   SELF-CONSISTENT FIELD WAVEFUNCTION
     ----------------------------------------------------------------

          -----------------
          ENERGY COMPONENTS
          -----------------

         WAVEFUNCTION NORMALIZATION =       1.0000000000

                ONE ELECTRON ENERGY =    -961.7938128696
                TWO ELECTRON ENERGY =     311.7298122055
           NUCLEAR REPULSION ENERGY =     102.2122145588
                                      ------------------
                       TOTAL ENERGY =    -547.8517861053

 ELECTRON-ELECTRON POTENTIAL ENERGY =     311.7298122055
  NUCLEUS-ELECTRON POTENTIAL ENERGY =   -1501.7621380602
   NUCLEUS-NUCLEUS POTENTIAL ENERGY =     102.2122145588
                                      ------------------
             TOTAL POTENTIAL ENERGY =   -1087.8201112960
               TOTAL KINETIC ENERGY =     539.9683251907
                 VIRIAL RATIO (V/T) =       2.0145998581

          ---------------------------------------
          MULLIKEN AND LOWDIN POPULATION ANALYSES
          ---------------------------------------

     ATOMIC MULLIKEN POPULATION IN EACH MOLECULAR ORBITAL

                      1          2          3          4          5

                  2.000000   2.000000   2.000000   2.000000   2.000000

    1            -0.000000   2.002697  -0.000634   0.000001   0.000001
    2             0.000006  -0.000575   2.002182  -0.001063  -0.000800
    3             1.999994   0.000001  -0.000447   2.001065   2.000801
    4             0.000000   0.000002  -0.001082  -0.000002  -0.000001
    5             0.000000  -0.000695  -0.000006  -0.000001  -0.000000
    6             0.000000  -0.000735  -0.000008  -0.000000  -0.000000
    7             0.000000  -0.000694  -0.000006  -0.000000  -0.000000

                      6          7          8          9         10

                  2.000000   2.000000   2.000000   2.000000   2.000000

    1             0.000000   0.000000   1.488515   0.086270   0.854816
    2            -0.000044  -0.000037   0.098348   0.290991   0.513167
    3             2.000043   2.000037   0.008248   1.576755   0.216991
    4             0.000001   0.000000   0.003959   0.024340   0.162762
    5            -0.000000  -0.000000   0.128037   0.004501   0.112486
    6            -0.000000   0.000000   0.145143   0.012478   0.027853
    7            -0.000000  -0.000000   0.127751   0.004665   0.111926

                     11         12         13         14         15

                  2.000000   2.000000   2.000000   2.000000   2.000000

    1             1.117648   1.194429   0.475836   0.048405   0.004394
    2             0.114729   0.048268   0.735427   0.546323   0.287814
    3             0.145047   0.002206   0.136111   1.233125   1.693447
    4             0.005941   0.000017   0.591992   0.144656   0.000000
    5             0.059008   0.366197   0.030559   0.001325   0.007079
    6             0.519554   0.000792   0.000083   0.024994   0.000001
    7             0.038074   0.388092   0.029993   0.001171   0.007265

                     16         17

                  2.000000   2.000000

    1             0.030984   0.000142
    2             0.012185   1.603144
    3             1.911153   0.302090
    4             0.041009   0.000000
    5             0.001002   0.046825
    6             0.002665   0.000004
    7             0.001001   0.047795

               ----- POPULATIONS IN EACH AO -----
                             MULLIKEN      LOWDIN
              1  N  1  S      1.99488     1.99096
              2  N  1  S      1.55181     1.27304
              3  N  1  X      1.35978     1.33167
              4  N  1  Y      1.19872     1.19506
              5  N  1  Z      1.19831     1.19412
              6  C  2  S      1.99192     1.98246
              7  C  2  S      1.05118     1.01384
              8  C  2  X      0.51689     0.61830
              9  C  2  Y      1.24649     1.28494
             10  C  2  Z      1.44359     1.47177
             11  CL 3  S      1.99997     1.99987
             12  CL 3  S      1.99867     1.99855
             13  CL 3  X      1.99783     1.99615
             14  CL 3  Y      1.99420     1.98961
             15  CL 3  Z      1.99600     1.99285
             16  CL 3  S      1.94875     1.90485
             17  CL 3  X      1.87484     1.87440
             18  CL 3  Y      1.65433     1.65655
             19  CL 3  Z      1.76209     1.76351
             20  H  4  S      0.97359     0.99611
             21  H  5  S      0.75632     0.83200
             22  H  6  S      0.73282     0.80675
             23  H  7  S      0.75703     0.83268

          ----- MULLIKEN ATOMIC OVERLAP POPULATIONS -----
          (OFF-DIAGONAL ELEMENTS NEED TO BE MULTIPLIED BY 2)

             1           2           3           4           5

    1    6.0923311
    2    0.2808962   5.3984646
    3   -0.0218450   0.2391944  17.0245719
    4   -0.0237580   0.4059090  -0.0169066   0.6095514
    5    0.3232619  -0.0287375   0.0003222   0.0012816   0.5238969
    6    0.3295588  -0.0168078   0.0009722  -0.0037517  -0.0243074
    7    0.3230574  -0.0288560   0.0003580   0.0012684  -0.0393997

             6           7

    6    0.4717565
    7   -0.0245978   0.5252027

          TOTAL MULLIKEN AND LOWDIN ATOMIC POPULATIONS
       ATOM         MULL.POP.    CHARGE          LOW.POP.     CHARGE
    1 N             7.303502   -0.303502         6.984838    0.015162
    2 C             6.250063   -0.250063         6.371305   -0.371305
    3 CL           17.226667   -0.226667        17.176321   -0.176321
    4 H             0.973594    0.026406         0.996106    0.003894
    5 H             0.756318    0.243682         0.831999    0.168001
    6 H             0.732823    0.267177         0.806747    0.193253
    7 H             0.757033    0.242967         0.832683    0.167317

          -------------------------------
          BOND ORDER AND VALENCE ANALYSIS     BOND ORDER THRESHOLD=0.050
          -------------------------------

                   BOND                       BOND                       BOND
  ATOM PAIR DIST  ORDER      ATOM PAIR DIST  ORDER      ATOM PAIR DIST  ORDER
    1   2  1.478  0.779        1   5  1.050  0.881        1   6  1.038  0.908
    1   7  1.050  0.881        2   3  1.763  0.929        2   4  1.056  0.965

                       TOTAL       BONDED        FREE
      ATOM            VALENCE     VALENCE     VALENCE
    1 N                 3.483       3.483      -0.000
    2 C                 2.753       2.753       0.000
    3 CL                0.982       0.982       0.000
    4 H                 0.999       0.999       0.000
    5 H                 0.941       0.941      -0.000
    6 H                 0.929       0.929       0.000
    7 H                 0.941       0.941      -0.000

          ---------------------
          ELECTROSTATIC MOMENTS
          ---------------------

 POINT   1           X           Y           Z (BOHR)    CHARGE
               -11.050397    6.514103    0.533484        0.00 (A.U.)
         DX          DY          DZ         /D/  (DEBYE)
    -6.384991   -1.932936   -1.374969    6.811379
 ...... END OF PROPERTY EVALUATION ......
 STEP CPU TIME =     0.02 TOTAL CPU TIME =          0.1 (      0.0 MIN)
 TOTAL WALL CLOCK TIME=          0.2 SECONDS, CPU UTILIZATION IS    81.25%


 JUMPING OFF SADDLE POINT ALONG THE IMAGINARY NORMAL MODE...

 $HESS GROUP READ FROM CARDS
 ENERGY IS     -547.8517861053 E(NUC) IS      102.2122145588                     
 INITIAL DISPLACEMENT= -0.05 ALONG MODE WITH FREQUENCY=    1086.688 I CM**-1
 THE COMPONENTS OF THE DISPLACEMENT ARE (BOHR) -
   -0.000050   0.001133  -0.001345
    0.000221  -0.004856   0.005727
   -0.000018   0.000394  -0.000462
   -0.001250   0.026869  -0.031672
    0.002885   0.002040  -0.000573
    0.000013  -0.000599   0.000742
   -0.002963   0.000104  -0.001951

 *********************************************
 ***** STARTING CONSTRAINED OPTIMIZATION *****
 *** TO FIND THE NEXT REACTION PATH POINT ****
 *********************************************
 CONSTRAINED OPTIMIZATION POINT   1 FOR PATH POINT   1
 COORDINATES OF SYMMETRY UNIQUE ATOMS (ANGS)
   ATOM   CHARGE       X              Y              Z
 ------------------------------------------------------------
 N           7.0  -7.3105897455   2.7753559576  -0.2322505107
 C           6.0  -5.8334859646   2.7917864398  -0.2650477004
 CL         17.0  -5.1192909528   4.0397088207   0.7557865586
 H           1.0  -5.3329999242   2.1267639872  -0.9169644569
 H           1.0  -7.7374524827   2.5838152448   0.7064434568
 H           1.0  -7.6350540200   2.0097569491  -0.8527733348
 H           1.0  -7.7972673589   3.6432328414  -0.5692275401
 ...... END OF ONE-ELECTRON INTEGRALS ......
 STEP CPU TIME =     0.01 TOTAL CPU TIME =          0.1 (      0.0 MIN)
 TOTAL WALL CLOCK TIME=          0.2 SECONDS, CPU UTILIZATION IS    82.35%
 TOTAL NUMBER OF NONZERO TWO-ELECTRON INTEGRALS =               34467
          3 INTEGRAL RECORDS WERE STORED ON DISK FILE  8.
  ...... END OF TWO-ELECTRON INTEGRALS .....
 STEP CPU TIME =     0.02 TOTAL CPU TIME =          0.2 (      0.0 MIN)
 TOTAL WALL CLOCK TIME=          0.2 SECONDS, CPU UTILIZATION IS    84.21%

          --------------------------
                 RHF SCF CALCULATION
          --------------------------
     DENSITY MATRIX CONV=  1.00E-05

 ITER EX DEM     TOTAL ENERGY        E CHANGE  DENSITY CHANGE     ORB. GRAD
          ---------------START SECOND ORDER SCF---------------
   1  0  0     -547.8515285408  -547.8515285408   0.024144285   0.008837262
   2  1  0     -547.8519369723    -0.0004084314   0.014322874   0.003227354
   3  2  0     -547.8520060062    -0.0000690339   0.000349521   0.000124130
   4  3  0     -547.8520062652    -0.0000002590   0.000254805   0.000060148
   5  4  0     -547.8520063230    -0.0000000578   0.000057505   0.000020525
   6  5  0     -547.8520063261    -0.0000000031   0.000041094   0.000010072
   7  6  0     -547.8520063270    -0.0000000009   0.000005033   0.000001524
   8  7  0     -547.8520063270    -0.0000000000   0.000002005   0.000000429

          -----------------
          DENSITY CONVERGED
          -----------------
     TIME TO FORM FOCK OPERATORS=       0.0 SECONDS (       0.0 SEC/ITER)
     TIME TO SOLVE SCF EQUATIONS=       0.0 SECONDS (       0.0 SEC/ITER)

 FINAL RHF ENERGY IS     -547.8520063270 AFTER   8 ITERATIONS
 ...... END OF RHF CALCULATION ......
 STEP CPU TIME =     0.02 TOTAL CPU TIME =          0.2 (      0.0 MIN)
 TOTAL WALL CLOCK TIME=          0.2 SECONDS, CPU UTILIZATION IS    81.82%
 ..... END OF 1-ELECTRON GRADIENT ......
 STEP CPU TIME =     0.00 TOTAL CPU TIME =          0.2 (      0.0 MIN)
 TOTAL WALL CLOCK TIME=          0.2 SECONDS, CPU UTILIZATION IS    78.26%
 ...... END OF 2-ELECTRON GRADIENT ......
 STEP CPU TIME =     0.03 TOTAL CPU TIME =          0.2 (      0.0 MIN)
 TOTAL WALL CLOCK TIME=          0.2 SECONDS, CPU UTILIZATION IS    87.50%

 UNITS ARE HARTREE/BOHR    E'X               E'Y               E'Z 
    1 N                0.000453983      -0.001376787       0.001672220
    2 C               -0.001095386       0.006070492      -0.005278136
    3 CL               0.000126805      -0.001209218       0.001484390
    4 H                0.000716265      -0.003266853       0.002002597
    5 H               -0.000323426      -0.000219097       0.000231580
    6 H               -0.000048535      -0.000151400      -0.000202492
    7 H                0.000170294       0.000152865       0.000089841

 CURRENT OPTIMIZATION POINT :
 ENERGY                                 =  -547.8520063 HARTREE
 MASS WEIGHTED TANGENT GRADIENT NORM    =     0.0014569 HARTREE/BOHR-SQRT(AMU)
 NEXT GEOMETRY STEP HAS PREDICTED ANGLE =         2.751 DEGREES
 AND CARTESIAN RMS DISPLACEMENT         =     0.0021664 BOHR

 CONSTRAINED OPTIMIZATION POINT   2 FOR PATH POINT   1
 COORDINATES OF SYMMETRY UNIQUE ATOMS (ANGS)
   ATOM   CHARGE       X              Y              Z
 ------------------------------------------------------------
 N           7.0  -7.3106447543   2.7753608397  -0.2322436306
 C           6.0  -5.8333633082   2.7917174784  -0.2650916860
 CL         17.0  -5.1193045189   4.0397049035   0.7557769673
 H           1.0  -5.3333872873   2.1274732991  -0.9162734686
 H           1.0  -7.7373658839   2.5838073611   0.7062936888
 H           1.0  -7.6351254009   2.0100126765  -0.8527255562
 H           1.0  -7.7971206413   3.6431648816  -0.5690556134
 ...... END OF ONE-ELECTRON INTEGRALS ......
 STEP CPU TIME =     0.00 TOTAL CPU TIME =          0.2 (      0.0 MIN)
 TOTAL WALL CLOCK TIME=          0.2 SECONDS, CPU UTILIZATION IS    84.00%
 TOTAL NUMBER OF NONZERO TWO-ELECTRON INTEGRALS =               34468
          3 INTEGRAL RECORDS WERE STORED ON DISK FILE  8.
  ...... END OF TWO-ELECTRON INTEGRALS .....
 STEP CPU TIME =     0.02 TOTAL CPU TIME =          0.2 (      0.0 MIN)
 TOTAL WALL CLOCK TIME=          0.3 SECONDS, CPU UTILIZATION IS    88.46%

          --------------------------
                 RHF SCF CALCULATION
          --------------------------
     DENSITY MATRIX CONV=  1.00E-05

 ITER EX DEM     TOTAL ENERGY        E CHANGE  DENSITY CHANGE     ORB. GRAD
          ---------------START SECOND ORDER SCF---------------
   1  0  0     -547.8520079427  -547.8520079427   0.000162117   0.000111107
   2  1  0     -547.8520080001    -0.0000000573   0.000082767   0.000019417
   3  2  0     -547.8520080057    -0.0000000057   0.000013727   0.000009601
   4  3  0     -547.8520080059    -0.0000000002   0.000002819   0.000001204
   5  4  0     -547.8520080059    -0.0000000000   0.000000859   0.000000593

          -----------------
          DENSITY CONVERGED
          -----------------
     TIME TO FORM FOCK OPERATORS=       0.0 SECONDS (       0.0 SEC/ITER)
     TIME TO SOLVE SCF EQUATIONS=       0.0 SECONDS (       0.0 SEC/ITER)

 FINAL RHF ENERGY IS     -547.8520080059 AFTER   5 ITERATIONS
 ...... END OF RHF CALCULATION ......
 STEP CPU TIME =     0.01 TOTAL CPU TIME =          0.2 (      0.0 MIN)
 TOTAL WALL CLOCK TIME=          0.3 SECONDS, CPU UTILIZATION IS    85.71%
 ..... END OF 1-ELECTRON GRADIENT ......
 STEP CPU TIME =     0.01 TOTAL CPU TIME =          0.2 (      0.0 MIN)
 TOTAL WALL CLOCK TIME=          0.3 SECONDS, CPU UTILIZATION IS    86.21%
 ...... END OF 2-ELECTRON GRADIENT ......
 STEP CPU TIME =     0.02 TOTAL CPU TIME =          0.3 (      0.0 MIN)
 TOTAL WALL CLOCK TIME=          0.3 SECONDS, CPU UTILIZATION IS    90.00%

 UNITS ARE HARTREE/BOHR    E'X               E'Y               E'Z 
    1 N                0.000189805      -0.001416080       0.001650677
    2 C               -0.000481524       0.005315008      -0.006012835
    3 CL               0.000133547      -0.001198141       0.001490475
    4 H                0.000178954      -0.002532113       0.002723225
    5 H               -0.000267467      -0.000183269       0.000075353
    6 H                0.000010869       0.000011893      -0.000075037
    7 H                0.000235818       0.000002703       0.000148142

 ANGLE TO PREVIOUS OPTIMIZATION POINT IS   2.751
 LINEAR INTERPOLATION GIVES ANGLE          2.753

 CURRENT OPTIMIZATION POINT :
 ENERGY                                 =  -547.8520080 HARTREE
 MASS WEIGHTED TANGENT GRADIENT NORM    =     0.0000105 HARTREE/BOHR-SQRT(AMU)
 NEXT GEOMETRY STEP HAS PREDICTED ANGLE =         0.082 DEGREES
 AND CARTESIAN RMS DISPLACEMENT         =     0.0000653 BOHR

 *******************************************
 ***** END OF CONSTRAINED OPTIMIZATION *****
 *******************************************

 ANGLE BETWEEN GRADIENTS AT CURRENT AND PREVIOUS IRC POINT =   2.753
 ENERGY WAS LOWERED BY      0.0000016789 HARTREE DURING OPTIMIZATION

 ***** NEXT POINT ON IRC FOUND *****
 STEP DISTANCE IS   0.09997 SQRT(AMU)-BOHR)

1         POINT   1 ON THE REACTION PATH
          ******************************
          AT PATH DISTANCE STOTAL =   0.09997     SQRT(AMU)-BOHR
          TOTAL ENERGY            =  -547.8520080 HARTREE
            2 CONSTRAINED OPTIMIZATION STEPS WERE PERFORMED
  
 COORDINATES OF ALL ATOMS ARE (ANGS)
   ATOM   CHARGE       X              Y              Z
 ------------------------------------------------------------
 N           7.0  -7.3106447543   2.7753608397  -0.2322436306
 C           6.0  -5.8333633082   2.7917174784  -0.2650916860
 CL         17.0  -5.1193045189   4.0397049035   0.7557769673
 H           1.0  -5.3333872873   2.1274732991  -0.9162734686
 H           1.0  -7.7373658839   2.5838073611   0.7062936888
 H           1.0  -7.6351254009   2.0100126765  -0.8527255562
 H           1.0  -7.7971206413   3.6431648816  -0.5690556134
  

          INTERNUCLEAR DISTANCES (ANGS.)
          ------------------------------

                1 N          2 C          3 CL         4 H          5 H     

   1 N       0.0000000    1.4777371 *  2.7160123 *  2.1902516 *  1.0486353 *
   2 C       1.4777371 *  0.0000000    1.7633846 *  1.0560464 *  2.1475665 *
   3 CL      2.7160123 *  1.7633846 *  0.0000000    2.5491594 *  2.9960527 *
   4 H       2.1902516 *  1.0560464 *  2.5491594 *  0.0000000    2.9359969 *
   5 H       1.0486353 *  2.1475665 *  2.9960527 *  2.9359969 *  0.0000000  
   6 H       1.0373251 *  2.0500543 *  3.6105797    2.3056092 *  1.6644021 *
   7 H       1.0503261 *  2.1618741 *  3.0138222    2.9133938 *  1.6590132 *

                6 H          7 H     

   1 N       1.0373251 *  1.0503261 *
   2 C       2.0500543 *  2.1618741 *
   3 CL      3.6105797    3.0138222  
   4 H       2.3056092 *  2.9133938 *
   5 H       1.6644021 *  1.6590132 *
   6 H       0.0000000    1.6655021 *
   7 H       1.6655021 *  0.0000000  

  * ... LESS THAN  3.000


          CURRENT CARTESIAN GRADIENT
          ATOM               DE/DX          DE/DY          DE/DZ
          -----------------------------------------------------------
          N                0.0001896500  -0.0014161031   0.0016506647
          C               -0.0004811644   0.0053145654  -0.0060132654
          CL               0.0001335507  -0.0011981348   0.0014904782
          H                0.0001786389  -0.0025316832   0.0027236468
          H               -0.0002674346  -0.0001832482   0.0000752617
          H                0.0000109034   0.0000119888  -0.0000749622
          H                0.0002358566   0.0000026150   0.0001481761
  
 CONVERGED ORBITALS AT IRC POINT                    1

                      1          2          3          4          5
                 -103.5112   -15.5672   -10.8440   -10.2144    -7.6566
                     A          A          A          A          A   
    1  N  1  S    0.000002  -0.993275  -0.000493  -0.000024   0.000020
    2  N  1  S   -0.000029  -0.032649   0.005068   0.000528  -0.000562
    3  N  1  X   -0.000004   0.001172   0.004097   0.000012  -0.000146
    4  N  1  Y   -0.000008   0.000387   0.000074   0.000042  -0.000081
    5  N  1  Z   -0.000007   0.000217  -0.000123   0.000044  -0.000066
    6  C  2  S   -0.000054  -0.000407  -0.992259   0.002008  -0.001365
    7  C  2  S    0.000367   0.004304  -0.033730  -0.007582   0.010592
    8  C  2  X    0.000134  -0.003803   0.001113  -0.002607   0.003404
    9  C  2  Y    0.000258  -0.000001   0.000072  -0.004915   0.006556
   10  C  2  Z    0.000212   0.000103   0.000552  -0.004036   0.005353
   11  CL 3  S    0.994486  -0.000003  -0.000222  -0.376807  -0.004013
   12  CL 3  S    0.015799   0.000001   0.000699   1.052625   0.011423
   13  CL 3  X   -0.000048  -0.000023   0.000197  -0.004247   0.424882
   14  CL 3  Y   -0.000078  -0.000004   0.000325  -0.005929   0.686522
   15  CL 3  Z   -0.000064  -0.000003   0.000272  -0.004950   0.568923
   16  CL 3  S   -0.001867  -0.000178   0.004421   0.046276  -0.005520
   17  CL 3  X    0.000096   0.000200  -0.001799  -0.002283   0.020649
   18  CL 3  Y    0.000164   0.000063  -0.003005  -0.003757   0.033690
   19  CL 3  Z    0.000135   0.000045  -0.002497  -0.003084   0.027873
   20  H  4  S    0.000016  -0.000242   0.007149  -0.000248   0.000179
   21  H  5  S    0.000015   0.005844   0.000473  -0.000311   0.000198
   22  H  6  S    0.000009   0.006002   0.000474  -0.000176   0.000202
   23  H  7  S    0.000014   0.005823   0.000454  -0.000294   0.000191

                      6          7          8          9         10
                   -7.6524    -7.6518    -1.2596    -0.9431    -0.7612
                     A          A          A          A          A   
    1  N  1  S   -0.000039  -0.000000   0.225775   0.022147  -0.002594
    2  N  1  S    0.000802   0.000009  -0.779618  -0.082632   0.017710
    3  N  1  X    0.000211  -0.000004   0.053617   0.140081   0.469026
    4  N  1  Y   -0.000383   0.000197   0.013771   0.031829  -0.195355
    5  N  1  Z   -0.000305  -0.000260   0.008606   0.021019  -0.188037
    6  C  2  S   -0.000051  -0.000003   0.049264  -0.095362  -0.138085
    7  C  2  S    0.000461   0.000043  -0.096037   0.250127   0.399345
    8  C  2  X    0.003302   0.000149   0.048971   0.022500  -0.083746
    9  C  2  Y   -0.000867  -0.001910  -0.002192   0.057575  -0.075074
   10  C  2  Z   -0.000939   0.002368  -0.002107   0.043830  -0.068945
   11  CL 3  S    0.000192   0.000016  -0.004255   0.080061  -0.030465
   12  CL 3  S   -0.000544  -0.000045   0.014343  -0.265004   0.099194
   13  CL 3  X   -0.892220  -0.039387  -0.003895   0.018300   0.007755
   14  CL 3  Y    0.299478   0.645083  -0.003675   0.023135   0.017265
   15  CL 3  Z    0.304830  -0.749040  -0.002977   0.019313   0.014437
   16  CL 3  S   -0.000068  -0.000031  -0.040295   0.860868  -0.356355
   17  CL 3  X   -0.037154  -0.001620   0.009988  -0.054816  -0.022632
   18  CL 3  Y    0.012612   0.026843   0.009649  -0.065004  -0.052709
   19  CL 3  Z    0.012815  -0.031110   0.007823  -0.054438  -0.044001
   20  H  4  S   -0.000769   0.000045  -0.016921   0.060289   0.185766
   21  H  5  S   -0.000355   0.000254  -0.117429  -0.033852  -0.191774
   22  H  6  S   -0.000142  -0.000005  -0.127648  -0.055338   0.093552
   23  H  7  S   -0.000323  -0.000254  -0.117012  -0.034619  -0.188399

                     11         12         13         14         15
                   -0.7134    -0.7111    -0.5370    -0.3918    -0.3352
                     A          A          A          A          A   
    1  N  1  S   -0.012478   0.001931  -0.043655   0.015340   0.000096
    2  N  1  S    0.059643  -0.009441   0.207822  -0.074569  -0.000474
    3  N  1  X    0.246110  -0.011135   0.452716  -0.127311  -0.000123
    4  N  1  Y    0.386443  -0.482492  -0.031800  -0.076024  -0.035940
    5  N  1  Z    0.438957   0.438951  -0.055058  -0.062662   0.038811
    6  C  2  S   -0.062824   0.008553   0.090273  -0.031647   0.002453
    7  C  2  S    0.191341  -0.026306  -0.295611   0.142495  -0.009329
    8  C  2  X   -0.071432   0.011354  -0.321724   0.089035  -0.012549
    9  C  2  Y    0.016257  -0.067836   0.131514   0.300433   0.226604
   10  C  2  Z    0.031664   0.073350   0.141362   0.270005  -0.247294
   11  CL 3  S   -0.023685   0.003351   0.010738  -0.018209  -0.000314
   12  CL 3  S    0.076763  -0.010858  -0.033970   0.055517   0.000970
   13  CL 3  X    0.019556  -0.002924   0.021321   0.103555   0.015646
   14  CL 3  Y    0.016173   0.002335  -0.042994   0.147035  -0.167206
   15  CL 3  Z    0.011527  -0.007314  -0.038649   0.114264   0.200159
   16  CL 3  S   -0.282816   0.040057   0.141576  -0.268815  -0.004436
   17  CL 3  X   -0.061790   0.009264  -0.074042  -0.350130  -0.055355
   18  CL 3  Y   -0.049087  -0.007771   0.139947  -0.493930   0.594060
   19  CL 3  Z   -0.034640   0.022982   0.126056  -0.383092  -0.710423
   20  H  4  S    0.040439  -0.008982  -0.430198  -0.244174  -0.004014
   21  H  5  S    0.184244   0.339578  -0.119395  -0.034620   0.068091
   22  H  6  S   -0.431184   0.067042  -0.001956   0.125827   0.005148
   23  H  7  S    0.073187  -0.383233  -0.110304  -0.025871  -0.072625

                     16         17         18         19         20
                   -0.3046    -0.1140     0.4840     0.4990     0.5315
                     A          A          A          A          A   
    1  N  1  S    0.021882   0.001812  -0.186142  -0.041547  -0.001802
    2  N  1  S   -0.113772  -0.010000   1.242366   0.294465   0.039769
    3  N  1  X   -0.122012  -0.005933  -0.289898  -0.395012  -0.326516
    4  N  1  Y   -0.013421  -0.005265  -0.046230   0.337525  -0.626460
    5  N  1  Z   -0.006754   0.005074  -0.039505   0.281319  -0.539585
    6  C  2  S   -0.012145  -0.007908   0.093903  -0.138257  -0.131786
    7  C  2  S    0.038227   0.035989  -0.474573   0.718892   0.714529
    8  C  2  X   -0.002518   0.033952   0.103971   0.204706  -0.034726
    9  C  2  Y   -0.042600  -0.617289  -0.155183   0.381623   0.075228
   10  C  2  Z   -0.036746   0.696552  -0.112990   0.306266   0.038514
   11  CL 3  S   -0.000855  -0.000183   0.009967  -0.019490  -0.009157
   12  CL 3  S    0.003043   0.000613  -0.029009   0.055486   0.026069
   13  CL 3  X    0.254340   0.004472   0.045908  -0.065827  -0.029176
   14  CL 3  Y   -0.084060  -0.081969   0.053179  -0.119647  -0.055025
   15  CL 3  Z   -0.089517   0.091460   0.043868  -0.098266  -0.045925
   16  CL 3  S   -0.006716  -0.002070   0.168030  -0.342782  -0.161884
   17  CL 3  X   -0.911540  -0.016851  -0.184898   0.268703   0.122200
   18  CL 3  Y    0.299559   0.306490  -0.215226   0.487129   0.224977
   19  CL 3  Z    0.319385  -0.342537  -0.177530   0.399992   0.187647
   20  H  4  S    0.141276  -0.009148   0.191571  -0.184525  -0.410065
   21  H  5  S    0.021365  -0.195805  -0.599656  -0.498306   0.276271
   22  H  6  S    0.037168  -0.005595  -0.691054   0.292938  -0.938205
   23  H  7  S    0.021545   0.207913  -0.617473  -0.518271   0.229234

                     21         22         23
                    0.5470     0.7085     0.9108
                     A          A          A   
    1  N  1  S   -0.002149   0.064767  -0.012565
    2  N  1  S    0.016082  -0.417249   0.091200
    3  N  1  X    0.007630  -0.746726   0.122111
    4  N  1  Y   -0.650038   0.180891   0.204043
    5  N  1  Z    0.756780   0.161959   0.184221
    6  C  2  S   -0.003235  -0.076994  -0.077589
    7  C  2  S    0.016177   0.434734   0.558521
    8  C  2  X   -0.021933  -1.016117   0.537221
    9  C  2  Y    0.151151  -0.287218  -0.716691
   10  C  2  Z   -0.156519  -0.211406  -0.686531
   11  CL 3  S   -0.000273   0.008635   0.006006
   12  CL 3  S    0.000752  -0.023411  -0.015330
   13  CL 3  X   -0.001831  -0.001115   0.039978
   14  CL 3  Y    0.007141   0.053213   0.022576
   15  CL 3  Z   -0.011807   0.044486   0.015509
   16  CL 3  S   -0.005128   0.166456   0.128126
   17  CL 3  X    0.007565   0.001036  -0.172704
   18  CL 3  Y   -0.028286  -0.225844  -0.102802
   19  CL 3  Z    0.047311  -0.188664  -0.071698
   20  H  4  S    0.001213  -0.100941  -1.195191
   21  H  5  S   -0.845490  -0.182752  -0.073114
   22  H  6  S   -0.029041   0.117768   0.187216
   23  H  7  S    0.825618  -0.203623  -0.058856

 THE NUCLEAR REPULSION AT THE IRC POINT IS      102.2130216772

 * * * IRC RESTART INFORMATION * * *
 COORDINATES FOR $DATA AND ENTIRE $IRC GROUP FOLLOW

 COORDINATES OF SYMMETRY UNIQUE ATOMS (ANGS)
   ATOM   CHARGE       X              Y              Z
 ------------------------------------------------------------
 N           7.0  -7.3106447543   2.7753608397  -0.2322436306
 C           6.0  -5.8333633082   2.7917174784  -0.2650916860
 CL         17.0  -5.1193045189   4.0397049035   0.7557769673
 H           1.0  -5.3333872873   2.1274732991  -0.9162734686
 H           1.0  -7.7373658839   2.5838073611   0.7062936888
 H           1.0  -7.6351254009   2.0100126765  -0.8527255562
 H           1.0  -7.7971206413   3.6431648816  -0.5690556134
 $IRC   PACE=GS2        STRIDE= 0.10000   NPOINT=??
        STOTAL=  0.099971   NEXTPT=   2
        NPRT= 0   NPUN= 0   SADDLE=.FALSE.
        GA(   1)= 1.896499619E-04,-1.416103135E-03, 1.650664693E-03
        GA(   4)=-4.811644411E-04, 5.314565423E-03,-6.013265391E-03
        GA(   7)= 1.335506879E-04,-1.198134761E-03, 1.490478182E-03
        GA(  10)= 1.786389215E-04,-2.531683214E-03, 2.723646820E-03
        GA(  13)=-2.674345592E-04,-1.832481598E-04, 7.526172896E-05
        GA(  16)= 1.090342764E-05, 1.198875404E-05,-7.496222187E-05
        GA(  19)= 2.358565790E-04, 2.614976893E-06, 1.481760963E-04
 $END   
 A GS2 RESTART ALSO REQUIRES THE UPDATED $HESS GROUP FROM THE PUNCH FILE

 *********************************************
 ***** STARTING CONSTRAINED OPTIMIZATION *****
 *** TO FIND THE NEXT REACTION PATH POINT ****
 *********************************************
 CONSTRAINED OPTIMIZATION POINT   1 FOR PATH POINT   2
 COORDINATES OF SYMMETRY UNIQUE ATOMS (ANGS)
   ATOM   CHARGE       X              Y              Z
 ------------------------------------------------------------
 N           7.0  -7.3108059462   2.7765642109  -0.2336463193
 C           6.0  -5.8328861036   2.7864474034  -0.2591288316
 CL         17.0  -5.1193499725   4.0401126111   0.7552697710
 H           1.0  -5.3354967150   2.1573654541  -0.9484313294
 H           1.0  -7.7342082169   2.5859709788   0.7054049812
 H           1.0  -7.6352541801   2.0098712744  -0.8518404446
 H           1.0  -7.7999053285   3.6431339666  -0.5708050369
 ...... END OF ONE-ELECTRON INTEGRALS ......
 STEP CPU TIME =     0.01 TOTAL CPU TIME =          0.3 (      0.0 MIN)
 TOTAL WALL CLOCK TIME=          0.3 SECONDS, CPU UTILIZATION IS    90.32%
 TOTAL NUMBER OF NONZERO TWO-ELECTRON INTEGRALS =               34470
          3 INTEGRAL RECORDS WERE STORED ON DISK FILE  8.
  ...... END OF TWO-ELECTRON INTEGRALS .....
 STEP CPU TIME =     0.01 TOTAL CPU TIME =          0.3 (      0.0 MIN)
 TOTAL WALL CLOCK TIME=          0.3 SECONDS, CPU UTILIZATION IS    87.88%

          --------------------------
                 RHF SCF CALCULATION
          --------------------------
     DENSITY MATRIX CONV=  1.00E-05

 ITER EX DEM     TOTAL ENERGY        E CHANGE  DENSITY CHANGE     ORB. GRAD
          ---------------START SECOND ORDER SCF---------------
   1  0  0     -547.8521946130  -547.8521946130   0.023205221   0.008831845
   2  1  0     -547.8526023859    -0.0004077730   0.013755415   0.003227681
   3  2  0     -547.8526716474    -0.0000692614   0.000333110   0.000123112
   4  3  0     -547.8526719050    -0.0000002576   0.000239461   0.000055800
   5  4  0     -547.8526719594    -0.0000000543   0.000056334   0.000020367
   6  5  0     -547.8526719625    -0.0000000031   0.000040837   0.000009998
   7  6  0     -547.8526719634    -0.0000000009   0.000005791   0.000001718
   8  7  0     -547.8526719634    -0.0000000000   0.000001960   0.000000464

          -----------------
          DENSITY CONVERGED
          -----------------
     TIME TO FORM FOCK OPERATORS=       0.0 SECONDS (       0.0 SEC/ITER)
     TIME TO SOLVE SCF EQUATIONS=       0.0 SECONDS (       0.0 SEC/ITER)

 FINAL RHF ENERGY IS     -547.8526719634 AFTER   8 ITERATIONS
 ...... END OF RHF CALCULATION ......
 STEP CPU TIME =     0.03 TOTAL CPU TIME =          0.3 (      0.0 MIN)
 TOTAL WALL CLOCK TIME=          0.4 SECONDS, CPU UTILIZATION IS    88.89%
 ..... END OF 1-ELECTRON GRADIENT ......
 STEP CPU TIME =     0.00 TOTAL CPU TIME =          0.3 (      0.0 MIN)
 TOTAL WALL CLOCK TIME=          0.4 SECONDS, CPU UTILIZATION IS    88.89%
 ...... END OF 2-ELECTRON GRADIENT ......
 STEP CPU TIME =     0.02 TOTAL CPU TIME =          0.3 (      0.0 MIN)
 TOTAL WALL CLOCK TIME=          0.4 SECONDS, CPU UTILIZATION IS    89.47%

 UNITS ARE HARTREE/BOHR    E'X               E'Y               E'Z 
    1 N                0.000418285      -0.003104641       0.003075092
    2 C               -0.001830023       0.011743414      -0.010786832
    3 CL               0.000242869      -0.002648358       0.002724830
    4 H                0.000958322      -0.005800016       0.004594329
    5 H               -0.000460924      -0.000287354      -0.000141141
    6 H                0.000082443       0.000370963       0.000098035
    7 H                0.000589028      -0.000274008       0.000435687

 CURRENT OPTIMIZATION POINT :
 ENERGY                                 =  -547.8526720 HARTREE
 MASS WEIGHTED TANGENT GRADIENT NORM    =     0.0015184 HARTREE/BOHR-SQRT(AMU)
 NEXT GEOMETRY STEP HAS PREDICTED ANGLE =         2.570 DEGREES
 AND CARTESIAN RMS DISPLACEMENT         =     0.0018614 BOHR

 CONSTRAINED OPTIMIZATION POINT   2 FOR PATH POINT   2
 COORDINATES OF SYMMETRY UNIQUE ATOMS (ANGS)
   ATOM   CHARGE       X              Y              Z
 ------------------------------------------------------------
 N           7.0  -7.3108434299   2.7765973434  -0.2336264526
 C           6.0  -5.8328020301   2.7863284114  -0.2592421407
 CL         17.0  -5.1193504091   4.0401292131   0.7552857362
 H           1.0  -5.3358948796   2.1578593389  -0.9478973574
 H           1.0  -7.7341980604   2.5859112468   0.7056661025
 H           1.0  -7.6352427262   2.0095935458  -0.8519786499
 H           1.0  -7.7999938620   3.6433579607  -0.5709427573
 ...... END OF ONE-ELECTRON INTEGRALS ......
 STEP CPU TIME =     0.01 TOTAL CPU TIME =          0.4 (      0.0 MIN)
 TOTAL WALL CLOCK TIME=          0.4 SECONDS, CPU UTILIZATION IS    92.11%
 TOTAL NUMBER OF NONZERO TWO-ELECTRON INTEGRALS =               34469
          3 INTEGRAL RECORDS WERE STORED ON DISK FILE  8.
  ...... END OF TWO-ELECTRON INTEGRALS .....
 STEP CPU TIME =     0.01 TOTAL CPU TIME =          0.4 (      0.0 MIN)
 TOTAL WALL CLOCK TIME=          0.4 SECONDS, CPU UTILIZATION IS    90.00%

          --------------------------
                 RHF SCF CALCULATION
          --------------------------
     DENSITY MATRIX CONV=  1.00E-05

 ITER EX DEM     TOTAL ENERGY        E CHANGE  DENSITY CHANGE     ORB. GRAD
          ---------------START SECOND ORDER SCF---------------
   1  0  0     -547.8526735568  -547.8526735568   0.000134323   0.000097112
   2  1  0     -547.8526735918    -0.0000000350   0.000045668   0.000016379
   3  2  0     -547.8526735944    -0.0000000026   0.000010262   0.000006274
   4  3  0     -547.8526735945    -0.0000000001   0.000002160   0.000000795
   5  4  0     -547.8526735945    -0.0000000000   0.000000928   0.000000322

          -----------------
          DENSITY CONVERGED
          -----------------
     TIME TO FORM FOCK OPERATORS=       0.0 SECONDS (       0.0 SEC/ITER)
     TIME TO SOLVE SCF EQUATIONS=       0.0 SECONDS (       0.0 SEC/ITER)

 FINAL RHF ENERGY IS     -547.8526735945 AFTER   5 ITERATIONS
 ...... END OF RHF CALCULATION ......
 STEP CPU TIME =     0.01 TOTAL CPU TIME =          0.4 (      0.0 MIN)
 TOTAL WALL CLOCK TIME=          0.4 SECONDS, CPU UTILIZATION IS    88.10%
 ..... END OF 1-ELECTRON GRADIENT ......
 STEP CPU TIME =     0.01 TOTAL CPU TIME =          0.4 (      0.0 MIN)
 TOTAL WALL CLOCK TIME=          0.4 SECONDS, CPU UTILIZATION IS    90.48%
 ...... END OF 2-ELECTRON GRADIENT ......
 STEP CPU TIME =     0.01 TOTAL CPU TIME =          0.4 (      0.0 MIN)
 TOTAL WALL CLOCK TIME=          0.4 SECONDS, CPU UTILIZATION IS    88.64%

 UNITS ARE HARTREE/BOHR    E'X               E'Y               E'Z 
    1 N                0.000551099      -0.002957099       0.003175979
    2 C               -0.001291015       0.011048579      -0.011510030
    3 CL               0.000269325      -0.002576481       0.002779033
    4 H                0.000489752      -0.005209785       0.005245863
    5 H               -0.000530164      -0.000347265       0.000067034
    6 H                0.000017362       0.000114863      -0.000102261
    7 H                0.000493642      -0.000072812       0.000344383

 ANGLE TO PREVIOUS OPTIMIZATION POINT IS   2.570
 LINEAR INTERPOLATION GIVES ANGLE          2.565

 CURRENT OPTIMIZATION POINT :
 ENERGY                                 =  -547.8526736 HARTREE
 MASS WEIGHTED TANGENT GRADIENT NORM    =     0.0000141 HARTREE/BOHR-SQRT(AMU)
 NEXT GEOMETRY STEP HAS PREDICTED ANGLE =         0.063 DEGREES
 AND CARTESIAN RMS DISPLACEMENT         =     0.0000498 BOHR

 *******************************************
 ***** END OF CONSTRAINED OPTIMIZATION *****
 *******************************************

 ANGLE BETWEEN GRADIENTS AT CURRENT AND PREVIOUS IRC POINT =   2.565
 ENERGY WAS LOWERED BY      0.0000016311 HARTREE DURING OPTIMIZATION

 ***** NEXT POINT ON IRC FOUND *****
 STEP DISTANCE IS   0.09997 SQRT(AMU)-BOHR)

1         POINT   2 ON THE REACTION PATH
          ******************************
          AT PATH DISTANCE STOTAL =   0.19995     SQRT(AMU)-BOHR
          TOTAL ENERGY            =  -547.8526736 HARTREE
            2 CONSTRAINED OPTIMIZATION STEPS WERE PERFORMED
  
 COORDINATES OF ALL ATOMS ARE (ANGS)
   ATOM   CHARGE       X              Y              Z
 ------------------------------------------------------------
 N           7.0  -7.3108434299   2.7765973434  -0.2336264526
 C           6.0  -5.8328020301   2.7863284114  -0.2592421407
 CL         17.0  -5.1193504091   4.0401292131   0.7552857362
 H           1.0  -5.3358948796   2.1578593389  -0.9478973574
 H           1.0  -7.7341980604   2.5859112468   0.7056661025
 H           1.0  -7.6352427262   2.0095935458  -0.8519786499
 H           1.0  -7.7999938620   3.6433579607  -0.5709427573
  

          INTERNUCLEAR DISTANCES (ANGS.)
          ------------------------------

                1 N          2 C          3 CL         4 H          5 H     

   1 N       0.0000000    1.4782954 *  2.7160821 *  2.1893929 *  1.0477885 *
   2 C       1.4782954 *  0.0000000    1.7636033 *  1.0564734 *  2.1416166 *
   3 CL      2.7160821 *  1.7636033 *  0.0000000    2.5476782 *  2.9924305 *
   4 H       2.1893929 *  1.0564734 *  2.5476782 *  0.0000000    2.9443775 *
   5 H       1.0477885 *  2.1416166 *  2.9924305 *  2.9443775 *  0.0000000  
   6 H       1.0372508 *  2.0502307 *  3.6105523    2.3061187 *  1.6637883 *
   7 H       1.0508684 *  2.1682944 *  3.0169784    2.9018244 *  1.6589915 *

                6 H          7 H     

   1 N       1.0372508 *  1.0508684 *
   2 C       2.0502307 *  2.1682944 *
   3 CL      3.6105523    3.0169784  
   4 H       2.3061187 *  2.9018244 *
   5 H       1.6637883 *  1.6589915 *
   6 H       0.0000000    1.6659263 *
   7 H       1.6659263 *  0.0000000  

  * ... LESS THAN  3.000


          CURRENT CARTESIAN GRADIENT
          ATOM               DE/DX          DE/DY          DE/DZ
          -----------------------------------------------------------
          N                0.0005508342  -0.0029573930   0.0031757779
          C               -0.0012920888   0.0110499636  -0.0115085894
          CL               0.0002692721  -0.0025766247   0.0027789246
          H                0.0004906853  -0.0052109610   0.0052445647
          H               -0.0005300264  -0.0003471453   0.0000666191
          H                0.0000174913   0.0001153728  -0.0001018621
          H                0.0004938324  -0.0000732125   0.0003445650

 THE NUCLEAR REPULSION AT THE IRC POINT IS      102.2060993482

 * * * IRC RESTART INFORMATION * * *
 COORDINATES FOR $DATA AND ENTIRE $IRC GROUP FOLLOW

 COORDINATES OF SYMMETRY UNIQUE ATOMS (ANGS)
   ATOM   CHARGE       X              Y              Z
 ------------------------------------------------------------
 N           7.0  -7.3108434299   2.7765973434  -0.2336264526
 C           6.0  -5.8328020301   2.7863284114  -0.2592421407
 CL         17.0  -5.1193504091   4.0401292131   0.7552857362
 H           1.0  -5.3358948796   2.1578593389  -0.9478973574
 H           1.0  -7.7341980604   2.5859112468   0.7056661025
 H           1.0  -7.6352427262   2.0095935458  -0.8519786499
 H           1.0  -7.7999938620   3.6433579607  -0.5709427573
 $IRC   PACE=GS2        STRIDE= 0.10000   NPOINT=??
        STOTAL=  0.199946   NEXTPT=   3
        NPRT= 0   NPUN= 0   SADDLE=.FALSE.
        GA(   1)= 5.508341614E-04,-2.957392968E-03, 3.175777924E-03
        GA(   4)=-1.292088840E-03, 1.104996359E-02,-1.150858936E-02
        GA(   7)= 2.692721336E-04,-2.576624667E-03, 2.778924600E-03
        GA(  10)= 4.906853393E-04,-5.210961049E-03, 5.244564701E-03
        GA(  13)=-5.300264236E-04,-3.471453290E-04, 6.661913670E-05
        GA(  16)= 1.749134076E-05, 1.153728240E-04,-1.018621387E-04
        GA(  19)= 4.938323993E-04,-7.321247067E-05, 3.445650070E-04
 $END   
 A GS2 RESTART ALSO REQUIRES THE UPDATED $HESS GROUP FROM THE PUNCH FILE

 *********************************************
 ***** STARTING CONSTRAINED OPTIMIZATION *****
 *** TO FIND THE NEXT REACTION PATH POINT ****
 *********************************************
 CONSTRAINED OPTIMIZATION POINT   1 FOR PATH POINT   3
 COORDINATES OF SYMMETRY UNIQUE ATOMS (ANGS)
   ATOM   CHARGE       X              Y              Z
 ------------------------------------------------------------
 N           7.0  -7.3110784542   2.7778595086  -0.2349819313
 C           6.0  -5.8321586744   2.7808252276  -0.2535100759
 CL         17.0  -5.1193964300   4.0405695553   0.7548107537
 H           1.0  -5.3388039395   2.1887603009  -0.9789996434
 H           1.0  -7.7310549276   2.5879700007   0.7052705186
 H           1.0  -7.6353464758   2.0089099174  -0.8513743135
 H           1.0  -7.8029222015   3.6437916776  -0.5729858160
 ...... END OF ONE-ELECTRON INTEGRALS ......
 STEP CPU TIME =     0.02 TOTAL CPU TIME =          0.4 (      0.0 MIN)
 TOTAL WALL CLOCK TIME=          0.5 SECONDS, CPU UTILIZATION IS    91.11%
 TOTAL NUMBER OF NONZERO TWO-ELECTRON INTEGRALS =               34451
          3 INTEGRAL RECORDS WERE STORED ON DISK FILE  8.
  ...... END OF TWO-ELECTRON INTEGRALS .....
 STEP CPU TIME =     0.00 TOTAL CPU TIME =          0.4 (      0.0 MIN)
 TOTAL WALL CLOCK TIME=          0.5 SECONDS, CPU UTILIZATION IS    89.13%

          --------------------------
                 RHF SCF CALCULATION
          --------------------------
     DENSITY MATRIX CONV=  1.00E-05

 ITER EX DEM     TOTAL ENERGY        E CHANGE  DENSITY CHANGE     ORB. GRAD
          ---------------START SECOND ORDER SCF---------------
   1  0  0     -547.8532952626  -547.8532952626   0.022245775   0.008807217
   2  1  0     -547.8537021914    -0.0004069288   0.013625861   0.003226973
   3  2  0     -547.8537724421    -0.0000702507   0.000319346   0.000121240
   4  3  0     -547.8537726996    -0.0000002576   0.000218671   0.000049291
   5  4  0     -547.8537727510    -0.0000000513   0.000055020   0.000019750
   6  5  0     -547.8537727538    -0.0000000028   0.000039475   0.000009749
   7  6  0     -547.8537727545    -0.0000000008   0.000004984   0.000001530
   8  7  0     -547.8537727546    -0.0000000000   0.000001908   0.000000475

          -----------------
          DENSITY CONVERGED
          -----------------
     TIME TO FORM FOCK OPERATORS=       0.0 SECONDS (       0.0 SEC/ITER)
     TIME TO SOLVE SCF EQUATIONS=       0.0 SECONDS (       0.0 SEC/ITER)

 FINAL RHF ENERGY IS     -547.8537727546 AFTER   8 ITERATIONS
 ...... END OF RHF CALCULATION ......
 STEP CPU TIME =     0.04 TOTAL CPU TIME =          0.4 (      0.0 MIN)
 TOTAL WALL CLOCK TIME=          0.5 SECONDS, CPU UTILIZATION IS    91.84%
 ..... END OF 1-ELECTRON GRADIENT ......
 STEP CPU TIME =     0.00 TOTAL CPU TIME =          0.4 (      0.0 MIN)
 TOTAL WALL CLOCK TIME=          0.5 SECONDS, CPU UTILIZATION IS    90.00%
 ...... END OF 2-ELECTRON GRADIENT ......
 STEP CPU TIME =     0.02 TOTAL CPU TIME =          0.5 (      0.0 MIN)
 TOTAL WALL CLOCK TIME=          0.5 SECONDS, CPU UTILIZATION IS    92.16%

 UNITS ARE HARTREE/BOHR    E'X               E'Y               E'Z 
    1 N                0.001494240      -0.004509860       0.004686460
    2 C               -0.003100350       0.017720202      -0.015656569
    3 CL               0.000455924      -0.004035724       0.003959098
    4 H                0.001474332      -0.008681164       0.006656445
    5 H               -0.000861099      -0.000550872       0.000250178
    6 H               -0.000067231      -0.000040303      -0.000327706
    7 H                0.000604185       0.000097719       0.000432094

 CURRENT OPTIMIZATION POINT :
 ENERGY                                 =  -547.8537728 HARTREE
 MASS WEIGHTED TANGENT GRADIENT NORM    =     0.0018286 HARTREE/BOHR-SQRT(AMU)
 NEXT GEOMETRY STEP HAS PREDICTED ANGLE =         2.669 DEGREES
 AND CARTESIAN RMS DISPLACEMENT         =     0.0020011 BOHR

 CONSTRAINED OPTIMIZATION POINT   2 FOR PATH POINT   3
 COORDINATES OF SYMMETRY UNIQUE ATOMS (ANGS)
   ATOM   CHARGE       X              Y              Z
 ------------------------------------------------------------
 N           7.0  -7.3111397658   2.7778757437  -0.2349716452
 C           6.0  -5.8320569712   2.7807255855  -0.2536088653
 CL         17.0  -5.1194010826   4.0405788625   0.7548180412
 H           1.0  -5.3392372210   2.1893447015  -0.9783076011
 H           1.0  -7.7309760131   2.5879976191   0.7051845892
 H           1.0  -7.6353031856   2.0090503643  -0.8512577910
 H           1.0  -7.8028087699   3.6436771220  -0.5729279598
 ...... END OF ONE-ELECTRON INTEGRALS ......
 STEP CPU TIME =     0.01 TOTAL CPU TIME =          0.5 (      0.0 MIN)
 TOTAL WALL CLOCK TIME=          0.5 SECONDS, CPU UTILIZATION IS    92.31%
 TOTAL NUMBER OF NONZERO TWO-ELECTRON INTEGRALS =               34453
          3 INTEGRAL RECORDS WERE STORED ON DISK FILE  8.
  ...... END OF TWO-ELECTRON INTEGRALS .....
 STEP CPU TIME =     0.01 TOTAL CPU TIME =          0.5 (      0.0 MIN)
 TOTAL WALL CLOCK TIME=          0.5 SECONDS, CPU UTILIZATION IS    92.45%

          --------------------------
                 RHF SCF CALCULATION
          --------------------------
     DENSITY MATRIX CONV=  1.00E-05

 ITER EX DEM     TOTAL ENERGY        E CHANGE  DENSITY CHANGE     ORB. GRAD
          ---------------START SECOND ORDER SCF---------------
   1  0  0     -547.8537747950  -547.8537747950   0.000161936   0.000111859
   2  1  0     -547.8537748443    -0.0000000493   0.000080750   0.000018206
   3  2  0     -547.8537748491    -0.0000000048   0.000013094   0.000009278
   4  3  0     -547.8537748493    -0.0000000002   0.000002773   0.000001249
   5  4  0     -547.8537748493    -0.0000000000   0.000000600   0.000000539

          -----------------
          DENSITY CONVERGED
          -----------------
     TIME TO FORM FOCK OPERATORS=       0.0 SECONDS (       0.0 SEC/ITER)
     TIME TO SOLVE SCF EQUATIONS=       0.0 SECONDS (       0.0 SEC/ITER)

 FINAL RHF ENERGY IS     -547.8537748493 AFTER   5 ITERATIONS
 ...... END OF RHF CALCULATION ......
 STEP CPU TIME =     0.02 TOTAL CPU TIME =          0.5 (      0.0 MIN)
 TOTAL WALL CLOCK TIME=          0.6 SECONDS, CPU UTILIZATION IS    83.61%
 ..... END OF 1-ELECTRON GRADIENT ......
 STEP CPU TIME =     0.00 TOTAL CPU TIME =          0.5 (      0.0 MIN)
 TOTAL WALL CLOCK TIME=          0.6 SECONDS, CPU UTILIZATION IS    82.26%
 ...... END OF 2-ELECTRON GRADIENT ......
 STEP CPU TIME =     0.02 TOTAL CPU TIME =          0.5 (      0.0 MIN)
 TOTAL WALL CLOCK TIME=          0.6 SECONDS, CPU UTILIZATION IS    82.81%

 UNITS ARE HARTREE/BOHR    E'X               E'Y               E'Z 
    1 N                0.001238026      -0.004501761       0.004644289
[...]

          --------------------------
                 RHF SCF CALCULATION
          --------------------------
     DENSITY MATRIX CONV=  1.00E-05

 ITER EX DEM     TOTAL ENERGY        E CHANGE  DENSITY CHANGE     ORB. GRAD
          ---------------START SECOND ORDER SCF---------------
   1  0  0     -547.9155243658  -547.9155243658   0.000231347   0.000088326
   2  1  0     -547.9155244497    -0.0000000838   0.000111843   0.000029692
   3  2  0     -547.9155244598    -0.0000000101   0.000002736   0.000000921
   4  3  0     -547.9155244598    -0.0000000000   0.000000898   0.000000298
   5  4  0     -547.9155244598    -0.0000000000   0.000000196   0.000000049

          -----------------
          DENSITY CONVERGED
          -----------------
     TIME TO FORM FOCK OPERATORS=       0.0 SECONDS (       0.0 SEC/ITER)
     TIME TO SOLVE SCF EQUATIONS=       0.0 SECONDS (       0.0 SEC/ITER)

 FINAL RHF ENERGY IS     -547.9155244598 AFTER   5 ITERATIONS
 ...... END OF RHF CALCULATION ......
 STEP CPU TIME =     0.01 TOTAL CPU TIME =          5.6 (      0.1 MIN)
 TOTAL WALL CLOCK TIME=          6.0 SECONDS, CPU UTILIZATION IS    93.21%
 ..... END OF 1-ELECTRON GRADIENT ......
 STEP CPU TIME =     0.02 TOTAL CPU TIME =          5.6 (      0.1 MIN)
 TOTAL WALL CLOCK TIME=          6.0 SECONDS, CPU UTILIZATION IS    93.54%
 ...... END OF 2-ELECTRON GRADIENT ......
 STEP CPU TIME =     0.01 TOTAL CPU TIME =          5.7 (      0.1 MIN)
 TOTAL WALL CLOCK TIME=          6.1 SECONDS, CPU UTILIZATION IS    93.40%

 UNITS ARE HARTREE/BOHR    E'X               E'Y               E'Z 
    1 N               -0.000677343      -0.000401722      -0.000368844
    2 C               -0.000255494       0.000310522       0.000124744
    3 CL               0.001087519       0.000293224       0.000343473
    4 H               -0.000026174       0.000027735       0.000011378
    5 H               -0.000075656      -0.000016581      -0.000024117
    6 H                0.000035405      -0.000106423      -0.000016762
    7 H               -0.000088256      -0.000106754      -0.000069872

 ANGLE TO PREVIOUS OPTIMIZATION POINT IS   2.473
 LINEAR INTERPOLATION GIVES ANGLE          2.507

 CURRENT OPTIMIZATION POINT :
 ENERGY                                 =  -547.9155245 HARTREE
 MASS WEIGHTED TANGENT GRADIENT NORM    =     0.0000453 HARTREE/BOHR-SQRT(AMU)
 NEXT GEOMETRY STEP HAS PREDICTED ANGLE =         0.337 DEGREES
 AND CARTESIAN RMS DISPLACEMENT         =     0.0002699 BOHR

 *******************************************
 ***** END OF CONSTRAINED OPTIMIZATION *****
 *******************************************

 ANGLE BETWEEN GRADIENTS AT CURRENT AND PREVIOUS IRC POINT =   5.986
 ENERGY WAS LOWERED BY      0.0000047186 HARTREE DURING OPTIMIZATION

 ***** NEXT POINT ON IRC FOUND *****
 STEP DISTANCE IS   0.09986 SQRT(AMU)-BOHR)

1         POINT  34 ON THE REACTION PATH
          ******************************
          AT PATH DISTANCE STOTAL =   3.39533     SQRT(AMU)-BOHR
          TOTAL ENERGY            =  -547.9155245 HARTREE
            3 CONSTRAINED OPTIMIZATION STEPS WERE PERFORMED
  
 COORDINATES OF ALL ATOMS ARE (ANGS)
   ATOM   CHARGE       X              Y              Z
 ------------------------------------------------------------
 N           7.0  -7.3310315548   2.8444637197  -0.2197282409
 C           6.0  -5.6891724635   2.5673413467  -0.2271793220
 CL         17.0  -5.1564811020   4.0547641369   0.7445373199
 H           1.0  -5.5163332445   2.9338440794  -1.2646688208
 H           1.0  -7.6816307675   2.7071307183   0.7435684009
 H           1.0  -7.7899837941   2.1335468444  -0.8152883675
 H           1.0  -7.6587173089   3.7788901227  -0.5306954442
  

          INTERNUCLEAR DISTANCES (ANGS.)
          ------------------------------

                1 N          2 C          3 CL         4 H          5 H     

   1 N       0.0000000    1.6650987 *  2.6689520 *  2.0959532 *  1.0342730 *
   2 C       1.6650987 *  0.0000000    1.8548369 *  1.1138142 *  2.2207616 *
   3 CL      2.6689520 *  1.8548369 *  0.0000000    2.3287045 *  2.8622539 *
   4 H       2.0959532 *  1.1138142 *  2.3287045 *  0.0000000    2.9619131 *
   5 H       1.0342730 *  2.2207616 *  2.8622539 *  2.9619131 *  0.0000000  
   6 H       1.0347617 *  2.2242882 *  3.6137887    2.4519187 *  1.6645640 *
   7 H       1.0378975 *  2.3321834 *  2.8219694 *  2.4171531 *  1.6652152 *

                6 H          7 H     

   1 N       1.0347617 *  1.0378975 *
   2 C       2.2242882 *  2.3321834 *
   3 CL      3.6137887    2.8219694 *
   4 H       2.4519187 *  2.4171531 *
   5 H       1.6645640 *  1.6652152 *
   6 H       0.0000000    1.6749264 *
   7 H       1.6749264 *  0.0000000  

  * ... LESS THAN  3.000


          CURRENT CARTESIAN GRADIENT
          ATOM               DE/DX          DE/DY          DE/DZ
          -----------------------------------------------------------
          N               -0.0006765798  -0.0004017592  -0.0003694092
          C               -0.0002556990   0.0003104561   0.0001243615
          CL               0.0010876088   0.0002934909   0.0003437308
          H               -0.0000259894   0.0000276437   0.0000114082
          H               -0.0000760418  -0.0000164322  -0.0000237939
          H                0.0000351352  -0.0001059213  -0.0000166040
          H               -0.0000884329  -0.0001074781  -0.0000696934

 THE NUCLEAR REPULSION AT THE IRC POINT IS       99.8574532327

 * * * IRC RESTART INFORMATION * * *
 COORDINATES FOR $DATA AND ENTIRE $IRC GROUP FOLLOW

 COORDINATES OF SYMMETRY UNIQUE ATOMS (ANGS)
   ATOM   CHARGE       X              Y              Z
 ------------------------------------------------------------
 N           7.0  -7.3310315548   2.8444637197  -0.2197282409
 C           6.0  -5.6891724635   2.5673413467  -0.2271793220
 CL         17.0  -5.1564811020   4.0547641369   0.7445373199
 H           1.0  -5.5163332445   2.9338440794  -1.2646688208
 H           1.0  -7.6816307675   2.7071307183   0.7435684009
 H           1.0  -7.7899837941   2.1335468444  -0.8152883675
 H           1.0  -7.6587173089   3.7788901227  -0.5306954442
 $IRC   PACE=GS2        STRIDE= 0.10000   NPOINT=??
        STOTAL=  3.395331   NEXTPT=  35
        NPRT= 0   NPUN= 0   SADDLE=.FALSE.
        GA(   1)=-6.765798413E-04,-4.017591859E-04,-3.694091833E-04
        GA(   4)=-2.556989635E-04, 3.104561035E-04, 1.243615178E-04
        GA(   7)= 1.087608757E-03, 2.934909495E-04, 3.437307833E-04
        GA(  10)=-2.598943625E-05, 2.764370802E-05, 1.140819076E-05
        GA(  13)=-7.604183103E-05,-1.643220154E-05,-2.379387981E-05
        GA(  16)= 3.513524264E-05,-1.059213307E-04,-1.660404772E-05
        GA(  19)=-8.843293841E-05,-1.074780565E-04,-6.969339593E-05
 $END   
 A GS2 RESTART ALSO REQUIRES THE UPDATED $HESS GROUP FROM THE PUNCH FILE

 *********************************************
 ***** STARTING CONSTRAINED OPTIMIZATION *****
 *** TO FIND THE NEXT REACTION PATH POINT ****
 *********************************************
 CONSTRAINED OPTIMIZATION POINT   1 FOR PATH POINT  35
 COORDINATES OF SYMMETRY UNIQUE ATOMS (ANGS)
   ATOM   CHARGE       X              Y              Z
 ------------------------------------------------------------
 N           7.0  -7.3244986845   2.8483427122  -0.2161615592
 C           6.0  -5.6862914196   2.5638434779  -0.2285817660
 CL         17.0  -5.1606862702   4.0536293585   0.7432087207
 H           1.0  -5.5128454951   2.9301358152  -1.2662002132
 H           1.0  -7.6714282342   2.7093436458   0.7467624565
 H           1.0  -7.7947013923   2.1477535529  -0.8130538283
 H           1.0  -7.6468560246   3.7933050041  -0.5213518334
 ...... END OF ONE-ELECTRON INTEGRALS ......
 STEP CPU TIME =     0.01 TOTAL CPU TIME =          5.7 (      0.1 MIN)
 TOTAL WALL CLOCK TIME=          6.1 SECONDS, CPU UTILIZATION IS    93.56%
 TOTAL NUMBER OF NONZERO TWO-ELECTRON INTEGRALS =               34212
          3 INTEGRAL RECORDS WERE STORED ON DISK FILE  8.
  ...... END OF TWO-ELECTRON INTEGRALS .....
 STEP CPU TIME =     0.01 TOTAL CPU TIME =          5.7 (      0.1 MIN)
 TOTAL WALL CLOCK TIME=          6.1 SECONDS, CPU UTILIZATION IS    93.42%

          --------------------------
                 RHF SCF CALCULATION
          --------------------------
     DENSITY MATRIX CONV=  1.00E-05

 ITER EX DEM     TOTAL ENERGY        E CHANGE  DENSITY CHANGE     ORB. GRAD
          ---------------START SECOND ORDER SCF---------------
   1  0  0     -547.9154523645  -547.9154523645   0.004863751   0.001775565
   2  1  0     -547.9154942941    -0.0000419296   0.002551745   0.000545483
   3  2  0     -547.9155000312    -0.0000057371   0.000194970   0.000056105
   4  3  0     -547.9155000877    -0.0000000565   0.000061807   0.000031048
   5  4  0     -547.9155000950    -0.0000000073   0.000016672   0.000005879
   6  5  0     -547.9155000953    -0.0000000003   0.000002353   0.000000814
   7  6  0     -547.9155000953    -0.0000000000   0.000001213   0.000000300

          -----------------
          DENSITY CONVERGED
          -----------------
     TIME TO FORM FOCK OPERATORS=       0.0 SECONDS (       0.0 SEC/ITER)
     TIME TO SOLVE SCF EQUATIONS=       0.0 SECONDS (       0.0 SEC/ITER)

 FINAL RHF ENERGY IS     -547.9155000953 AFTER   7 ITERATIONS
 ...... END OF RHF CALCULATION ......
 STEP CPU TIME =     0.02 TOTAL CPU TIME =          5.7 (      0.1 MIN)
 TOTAL WALL CLOCK TIME=          6.1 SECONDS, CPU UTILIZATION IS    93.44%
 ..... END OF 1-ELECTRON GRADIENT ......
 STEP CPU TIME =     0.01 TOTAL CPU TIME =          5.7 (      0.1 MIN)
 TOTAL WALL CLOCK TIME=          6.1 SECONDS, CPU UTILIZATION IS    93.45%
 ...... END OF 2-ELECTRON GRADIENT ......
 STEP CPU TIME =     0.02 TOTAL CPU TIME =          5.7 (      0.1 MIN)
 TOTAL WALL CLOCK TIME=          6.1 SECONDS, CPU UTILIZATION IS    93.63%

 UNITS ARE HARTREE/BOHR    E'X               E'Y               E'Z 
    1 N                0.001103540      -0.006934103       0.002715890
    2 C                0.000072166      -0.000121051       0.000075015
    3 CL              -0.000140993      -0.000019047      -0.000009038
    4 H               -0.000011056       0.000074601      -0.000101752
    5 H                0.000508820       0.000134812      -0.001538689
    6 H                0.000502559       0.001169721       0.000909300
    7 H               -0.002035036       0.005695066      -0.002050726

 CURRENT OPTIMIZATION POINT :
 ENERGY                                 =  -547.9155001 HARTREE
 MASS WEIGHTED TANGENT GRADIENT NORM    =     0.0069861 HARTREE/BOHR-SQRT(AMU)
 NEXT GEOMETRY STEP HAS PREDICTED ANGLE =        72.131 DEGREES
 AND CARTESIAN RMS DISPLACEMENT         =     0.0539299 BOHR

 ......ENERGY IS GOING UP......

 CONSTRAINED OPTIMIZATION POINT   2 FOR PATH POINT  35
 COORDINATES OF SYMMETRY UNIQUE ATOMS (ANGS)
   ATOM   CHARGE       X              Y              Z
 ------------------------------------------------------------
 N           7.0  -7.3263092822   2.8480084347  -0.2170494964
 C           6.0  -5.6867799810   2.5655679128  -0.2296122735
 CL         17.0  -5.1597584375   4.0534734874   0.7439438072
 H           1.0  -5.5143275386   2.9338279285  -1.2667368773
 H           1.0  -7.6705781009   2.7211693294   0.7498208881
 H           1.0  -7.7918719980   2.1335059028  -0.8031030093
 H           1.0  -7.6502725504   3.7815551901  -0.5347225835
 ...... END OF ONE-ELECTRON INTEGRALS ......
 STEP CPU TIME =     0.00 TOTAL CPU TIME =          5.7 (      0.1 MIN)
 TOTAL WALL CLOCK TIME=          6.1 SECONDS, CPU UTILIZATION IS    93.47%
 TOTAL NUMBER OF NONZERO TWO-ELECTRON INTEGRALS =               34218
          3 INTEGRAL RECORDS WERE STORED ON DISK FILE  8.
  ...... END OF TWO-ELECTRON INTEGRALS .....
 STEP CPU TIME =     0.01 TOTAL CPU TIME =          5.7 (      0.1 MIN)
 TOTAL WALL CLOCK TIME=          6.1 SECONDS, CPU UTILIZATION IS    93.49%

          --------------------------
                 RHF SCF CALCULATION
          --------------------------
     DENSITY MATRIX CONV=  1.00E-05

 ITER EX DEM     TOTAL ENERGY        E CHANGE  DENSITY CHANGE     ORB. GRAD
          ---------------START SECOND ORDER SCF---------------
   1  0  0     -547.9154703608  -547.9154703608   0.005667767   0.003260371
   2  1  0     -547.9155293098    -0.0000589490   0.002778497   0.001102315
   3  2  0     -547.9155363223    -0.0000070125   0.000174041   0.000057124
   4  3  0     -547.9155363502    -0.0000000279   0.000033958   0.000021013
   5  4  0     -547.9155363533    -0.0000000031   0.000023098   0.000004248
   6  5  0     -547.9155363536    -0.0000000004   0.000006216   0.000000879
   7  6  0     -547.9155363536    -0.0000000000   0.000003232   0.000000328

          -----------------
          DENSITY CONVERGED
          -----------------
     TIME TO FORM FOCK OPERATORS=       0.0 SECONDS (       0.0 SEC/ITER)
     TIME TO SOLVE SCF EQUATIONS=       0.0 SECONDS (       0.0 SEC/ITER)

 FINAL RHF ENERGY IS     -547.9155363536 AFTER   7 ITERATIONS
 ...... END OF RHF CALCULATION ......
 STEP CPU TIME =     0.02 TOTAL CPU TIME =          5.8 (      0.1 MIN)
 TOTAL WALL CLOCK TIME=          6.2 SECONDS, CPU UTILIZATION IS    93.35%
 ..... END OF 1-ELECTRON GRADIENT ......
 STEP CPU TIME =     0.01 TOTAL CPU TIME =          5.8 (      0.1 MIN)
 TOTAL WALL CLOCK TIME=          6.2 SECONDS, CPU UTILIZATION IS    93.52%
 ...... END OF 2-ELECTRON GRADIENT ......
 STEP CPU TIME =     0.02 TOTAL CPU TIME =          5.8 (      0.1 MIN)
 TOTAL WALL CLOCK TIME=          6.2 SECONDS, CPU UTILIZATION IS    93.54%

 UNITS ARE HARTREE/BOHR    E'X               E'Y               E'Z 
    1 N               -0.000391379       0.000248816       0.000168225
    2 C                0.000010613      -0.000152923       0.000114691
    3 CL               0.000065050      -0.000084309       0.000004854
    4 H               -0.000028064       0.000163173      -0.000088288
    5 H                0.000128546      -0.000068453      -0.000072043
    6 H                0.000188955      -0.000183979       0.000054254
    7 H                0.000026280       0.000077674      -0.000181692

 STOPPING BECAUSE GRADIENT IS BELOW -OPTTOL-
 YOUR RUN IS PROBABLY VERY NEAR A PES MINIMUM.
 MAX GRADIENT= 0.000391 RMS GRADIENT= 0.000149


 *******************************************
 ***** END OF CONSTRAINED OPTIMIZATION *****
 *******************************************

 ANGLE BETWEEN GRADIENTS AT CURRENT AND PREVIOUS IRC POINT =  72.131
 ENERGY WAS LOWERED BY      0.0000362583 HARTREE DURING OPTIMIZATION

 ***** NEXT POINT ON IRC FOUND *****
 STEP DISTANCE IS   0.08083 SQRT(AMU)-BOHR)

1         POINT  35 ON THE REACTION PATH
          ******************************
          AT PATH DISTANCE STOTAL =   3.47617     SQRT(AMU)-BOHR
          TOTAL ENERGY            =  -547.9155364 HARTREE
            2 CONSTRAINED OPTIMIZATION STEPS WERE PERFORMED
  
 COORDINATES OF ALL ATOMS ARE (ANGS)
   ATOM   CHARGE       X              Y              Z
 ------------------------------------------------------------
 N           7.0  -7.3263092822   2.8480084347  -0.2170494964
 C           6.0  -5.6867799810   2.5655679128  -0.2296122735
 CL         17.0  -5.1597584375   4.0534734874   0.7439438072
 H           1.0  -5.5143275386   2.9338279285  -1.2667368773
 H           1.0  -7.6705781009   2.7211693294   0.7498208881
 H           1.0  -7.7918719980   2.1335059028  -0.8031030093
 H           1.0  -7.6502725504   3.7815551901  -0.5347225835
  

          INTERNUCLEAR DISTANCES (ANGS.)
          ------------------------------

                1 N          2 C          3 CL         4 H          5 H     

   1 N       0.0000000    1.6637268 *  2.6590594 *  2.0958260 *  1.0341410 *
   2 C       1.6637268 *  0.0000000    1.8545690 *  1.1139940 *  2.2178720 *
   3 CL      2.6590594 *  1.8545690 *  0.0000000    2.3285537 *  2.8424082 *
   4 H       2.0958260 *  1.1139940 *  2.3285537 *  0.0000000    2.9599232 *
   5 H       1.0341410 *  2.2178720 *  2.8424082 *  2.9599232 *  0.0000000  
   6 H       1.0347566 *  2.2241811 *  3.6066121    2.4581864 *  1.6648223 *
   7 H       1.0379682 *  2.3295966 *  2.8127545 *  2.4117934 *  1.6657978 *

                6 H          7 H     

   1 N       1.0347566 *  1.0379682 *
   2 C       2.2241811 *  2.3295966 *
   3 CL      3.6066121    2.8127545 *
   4 H       2.4581864 *  2.4117934 *
   5 H       1.6648223 *  1.6657978 *
   6 H       0.0000000    1.6757520 *
   7 H       1.6757520 *  0.0000000  

  * ... LESS THAN  3.000


          CURRENT CARTESIAN GRADIENT
          ATOM               DE/DX          DE/DY          DE/DZ
          -----------------------------------------------------------
          N               -0.0003913788   0.0002488158   0.0001682255
          C                0.0000106128  -0.0001529227   0.0001146906
          CL               0.0000650504  -0.0000843094   0.0000048537
          H               -0.0000280638   0.0001631733  -0.0000882884
          H                0.0001285456  -0.0000684527  -0.0000720433
          H                0.0001889550  -0.0001839789   0.0000542543
          H                0.0000262798   0.0000776740  -0.0001816923

 THE NUCLEAR REPULSION AT THE IRC POINT IS      100.0010967636

 * * * IRC RESTART INFORMATION * * *
 COORDINATES FOR $DATA AND ENTIRE $IRC GROUP FOLLOW

 COORDINATES OF SYMMETRY UNIQUE ATOMS (ANGS)
   ATOM   CHARGE       X              Y              Z
 ------------------------------------------------------------
 N           7.0  -7.3263092822   2.8480084347  -0.2170494964
 C           6.0  -5.6867799810   2.5655679128  -0.2296122735
 CL         17.0  -5.1597584375   4.0534734874   0.7439438072
 H           1.0  -5.5143275386   2.9338279285  -1.2667368773
 H           1.0  -7.6705781009   2.7211693294   0.7498208881
 H           1.0  -7.7918719980   2.1335059028  -0.8031030093
 H           1.0  -7.6502725504   3.7815551901  -0.5347225835
 $IRC   PACE=GS2        STRIDE= 0.10000   NPOINT=??
        STOTAL=  3.476165   NEXTPT=  36
        NPRT= 0   NPUN= 0   SADDLE=.FALSE.
        GA(   1)=-3.913788487E-04, 2.488158278E-04, 1.682254612E-04
        GA(   4)= 1.061279893E-05,-1.529227238E-04, 1.146906128E-04
        GA(   7)= 6.505040375E-05,-8.430939427E-05, 4.853663115E-06
        GA(  10)=-2.806376123E-05, 1.631733177E-04,-8.828841741E-05
        GA(  13)= 1.285455937E-04,-6.845273036E-05,-7.204331303E-05
        GA(  16)= 1.889549928E-04,-1.839788719E-04, 5.425428236E-05
        GA(  19)= 2.627982711E-05, 7.767395080E-05,-1.816923162E-04
 $END   
 A GS2 RESTART ALSO REQUIRES THE UPDATED $HESS GROUP FROM THE PUNCH FILE
 ......DONE WITH THIS PORTION OF THE IRC......
 STEP CPU TIME =     0.00 TOTAL CPU TIME =          5.8 (      0.1 MIN)
 TOTAL WALL CLOCK TIME=          6.2 SECONDS, CPU UTILIZATION IS    93.54%

   1 warning(s) detected.
     A line exceeding 80 characters begins with " $irc npoint=100 sad".
 There may be a problem in your input file.

               580000  WORDS OF DYNAMIC MEMORY USED
 EXECUTION OF GAMESS TERMINATED NORMALLY Tue Dec 21 22:55:57 2021
 DDI: 263640 bytes (0.3 MB / 0 MWords) used by master data server.

 ----------------------------------------
 CPU timing information for all processes
 ========================================
 0: 3.625 + 2.173 = 5.798
 ----------------------------------------
 ddikick.x: exited gracefully.
----- accounting info -----
Files used on the master node chemcompute-node-0.novalocal were:
-rw-r--r--. 1 chemcomp chemcomp     8122 Dec 21 22:55 /scratch/330231/368213.F05
-rw-rw-r--. 1 chemcomp chemcomp   540048 Dec 21 22:55 /scratch/330231/368213.F08
-rw-rw-r--. 1 chemcomp chemcomp 52428800 Dec 21 22:55 /scratch/330231/368213.F10
Tue Dec 21 22:56:00 UTC 2021
0.156u 0.087s 0:09.82 2.3%	0+0k 16+224io 0pf+0w
Finishing Up...
Looking for IR data...
Looking for Raman data...
vibramans not found
Looking for thermodynamics data...
Looking for UV-Vis data...
330231
